<?xml version="1.0"?>
<VTKFile type="UnstructuredGrid"  version="0.1"  >
<UnstructuredGrid>
<Piece  NumberOfPoints="273" NumberOfCells="480">
<Points>
<DataArray  type="Float64"  NumberOfComponents="3"  format="ascii">0 0 0  1 0 0  2 0 0  3 0 0  4 0 0  5 0 0  6 0 0  7 0 0  8 0 0  9 0 0  10 0 0  11 0 0  12 0 0  13 0 0  14 0 0  15 0 0  16 0 0  17 0 0  18 0 0  19 0 0  20 0 0  0 1 0  1 1 0  2 1 0  3 1 0  4 1 0  5 1 0  6 1 0  7 1 0  8 1 0  9 1 0  10 1 0  11 1 0  12 1 0  13 1 0  14 1 0  15 1 0  16 1 0  17 1 0  18 1 0  19 1 0  20 1 0  0 2 0  1 2 0  2 2 0  3 2 0  4 2 0  5 2 0  6 2 0  7 2 0  8 2 0  9 2 0  10 2 0  11 2 0  12 2 0  13 2 0  14 2 0  15 2 0  16 2 0  17 2 0  18 2 0  19 2 0  20 2 0  0 3 0  1 3 0  2 3 0  3 3 0  4 3 0  5 3 0  6 3 0  7 3 0  8 3 0  9 3 0  10 3 0  11 3 0  12 3 0  13 3 0  14 3 0  15 3 0  16 3 0  17 3 0  18 3 0  19 3 0  20 3 0  0 4 0  1 4 0  2 4 0  3 4 0  4 4 0  5 4 0  6 4 0  7 4 0  8 4 0  9 4 0  10 4 0  11 4 0  12 4 0  13 4 0  14 4 0  15 4 0  16 4 0  17 4 0  18 4 0  19 4 0  20 4 0  0 5 0  1 5 0  2 5 0  3 5 0  4 5 0  5 5 0  6 5 0  7 5 0  8 5 0  9 5 0  10 5 0  11 5 0  12 5 0  13 5 0  14 5 0  15 5 0  16 5 0  17 5 0  18 5 0  19 5 0  20 5 0  0 6 0  1 6 0  2 6 0  3 6 0  4 6 0  5 6 0  6 6 0  7 6 0  8 6 0  9 6 0  10 6 0  11 6 0  12 6 0  13 6 0  14 6 0  15 6 0  16 6 0  17 6 0  18 6 0  19 6 0  20 6 0  0 7 0  1 7 0  2 7 0  3 7 0  4 7 0  5 7 0  6 7 0  7 7 0  8 7 0  9 7 0  10 7 0  11 7 0  12 7 0  13 7 0  14 7 0  15 7 0  16 7 0  17 7 0  18 7 0  19 7 0  20 7 0  0 8 0  1 8 0  2 8 0  3 8 0  4 8 0  5 8 0  6 8 0  7 8 0  8 8 0  9 8 0  10 8 0  11 8 0  12 8 0  13 8 0  14 8 0  15 8 0  16 8 0  17 8 0  18 8 0  19 8 0  20 8 0  0 9 0  1 9 0  2 9 0  3 9 0  4 9 0  5 9 0  6 9 0  7 9 0  8 9 0  9 9 0  10 9 0  11 9 0  12 9 0  13 9 0  14 9 0  15 9 0  16 9 0  17 9 0  18 9 0  19 9 0  20 9 0  0 10 0  1 10 0  2 10 0  3 10 0  4 10 0  5 10 0  6 10 0  7 10 0  8 10 0  9 10 0  10 10 0  11 10 0  12 10 0  13 10 0  14 10 0  15 10 0  16 10 0  17 10 0  18 10 0  19 10 0  20 10 0  0 11 0  1 11 0  2 11 0  3 11 0  4 11 0  5 11 0  6 11 0  7 11 0  8 11 0  9 11 0  10 11 0  11 11 0  12 11 0  13 11 0  14 11 0  15 11 0  16 11 0  17 11 0  18 11 0  19 11 0  20 11 0  0 12 0  1 12 0  2 12 0  3 12 0  4 12 0  5 12 0  6 12 0  7 12 0  8 12 0  9 12 0  10 12 0  11 12 0  12 12 0  13 12 0  14 12 0  15 12 0  16 12 0  17 12 0  18 12 0  19 12 0  20 12 0  </DataArray>
</Points>
<Cells>
<DataArray  type="UInt32"  Name="connectivity"  format="ascii">0 1 22  0 21 22  1 2 23  1 22 23  2 3 24  2 23 24  3 4 25  3 24 25  4 5 26  4 25 26  5 6 27  5 26 27  6 7 28  6 27 28  7 8 29  7 28 29  8 9 30  8 29 30  9 10 31  9 30 31  10 11 32  10 31 32  11 12 33  11 32 33  12 13 34  12 33 34  13 14 35  13 34 35  14 15 36  14 35 36  15 16 37  15 36 37  16 17 38  16 37 38  17 18 39  17 38 39  18 19 40  18 39 40  19 20 41  19 40 41  21 22 43  21 42 43  22 23 44  22 43 44  23 24 45  23 44 45  24 25 46  24 45 46  25 26 47  25 46 47  26 27 48  26 47 48  27 28 49  27 48 49  28 29 50  28 49 50  29 30 51  29 50 51  30 31 52  30 51 52  31 32 53  31 52 53  32 33 54  32 53 54  33 34 55  33 54 55  34 35 56  34 55 56  35 36 57  35 56 57  36 37 58  36 57 58  37 38 59  37 58 59  38 39 60  38 59 60  39 40 61  39 60 61  40 41 62  40 61 62  42 43 64  42 63 64  43 44 65  43 64 65  44 45 66  44 65 66  45 46 67  45 66 67  46 47 68  46 67 68  47 48 69  47 68 69  48 49 70  48 69 70  49 50 71  49 70 71  50 51 72  50 71 72  51 52 73  51 72 73  52 53 74  52 73 74  53 54 75  53 74 75  54 55 76  54 75 76  55 56 77  55 76 77  56 57 78  56 77 78  57 58 79  57 78 79  58 59 80  58 79 80  59 60 81  59 80 81  60 61 82  60 81 82  61 62 83  61 82 83  63 64 85  63 84 85  64 65 86  64 85 86  65 66 87  65 86 87  66 67 88  66 87 88  67 68 89  67 88 89  68 69 90  68 89 90  69 70 91  69 90 91  70 71 92  70 91 92  71 72 93  71 92 93  72 73 94  72 93 94  73 74 95  73 94 95  74 75 96  74 95 96  75 76 97  75 96 97  76 77 98  76 97 98  77 78 99  77 98 99  78 79 100  78 99 100  79 80 101  79 100 101  80 81 102  80 101 102  81 82 103  81 102 103  82 83 104  82 103 104  84 85 106  84 105 106  85 86 107  85 106 107  86 87 108  86 107 108  87 88 109  87 108 109  88 89 110  88 109 110  89 90 111  89 110 111  90 91 112  90 111 112  91 92 113  91 112 113  92 93 114  92 113 114  93 94 115  93 114 115  94 95 116  94 115 116  95 96 117  95 116 117  96 97 118  96 117 118  97 98 119  97 118 119  98 99 120  98 119 120  99 100 121  99 120 121  100 101 122  100 121 122  101 102 123  101 122 123  102 103 124  102 123 124  103 104 125  103 124 125  105 106 127  105 126 127  106 107 128  106 127 128  107 108 129  107 128 129  108 109 130  108 129 130  109 110 131  109 130 131  110 111 132  110 131 132  111 112 133  111 132 133  112 113 134  112 133 134  113 114 135  113 134 135  114 115 136  114 135 136  115 116 137  115 136 137  116 117 138  116 137 138  117 118 139  117 138 139  118 119 140  118 139 140  119 120 141  119 140 141  120 121 142  120 141 142  121 122 143  121 142 143  122 123 144  122 143 144  123 124 145  123 144 145  124 125 146  124 145 146  126 127 148  126 147 148  127 128 149  127 148 149  128 129 150  128 149 150  129 130 151  129 150 151  130 131 152  130 151 152  131 132 153  131 152 153  132 133 154  132 153 154  133 134 155  133 154 155  134 135 156  134 155 156  135 136 157  135 156 157  136 137 158  136 157 158  137 138 159  137 158 159  138 139 160  138 159 160  139 140 161  139 160 161  140 141 162  140 161 162  141 142 163  141 162 163  142 143 164  142 163 164  143 144 165  143 164 165  144 145 166  144 165 166  145 146 167  145 166 167  147 148 169  147 168 169  148 149 170  148 169 170  149 150 171  149 170 171  150 151 172  150 171 172  151 152 173  151 172 173  152 153 174  152 173 174  153 154 175  153 174 175  154 155 176  154 175 176  155 156 177  155 176 177  156 157 178  156 177 178  157 158 179  157 178 179  158 159 180  158 179 180  159 160 181  159 180 181  160 161 182  160 181 182  161 162 183  161 182 183  162 163 184  162 183 184  163 164 185  163 184 185  164 165 186  164 185 186  165 166 187  165 186 187  166 167 188  166 187 188  168 169 190  168 189 190  169 170 191  169 190 191  170 171 192  170 191 192  171 172 193  171 192 193  172 173 194  172 193 194  173 174 195  173 194 195  174 175 196  174 195 196  175 176 197  175 196 197  176 177 198  176 197 198  177 178 199  177 198 199  178 179 200  178 199 200  179 180 201  179 200 201  180 181 202  180 201 202  181 182 203  181 202 203  182 183 204  182 203 204  183 184 205  183 204 205  184 185 206  184 205 206  185 186 207  185 206 207  186 187 208  186 207 208  187 188 209  187 208 209  189 190 211  189 210 211  190 191 212  190 211 212  191 192 213  191 212 213  192 193 214  192 213 214  193 194 215  193 214 215  194 195 216  194 215 216  195 196 217  195 216 217  196 197 218  196 217 218  197 198 219  197 218 219  198 199 220  198 219 220  199 200 221  199 220 221  200 201 222  200 221 222  201 202 223  201 222 223  202 203 224  202 223 224  203 204 225  203 224 225  204 205 226  204 225 226  205 206 227  205 226 227  206 207 228  206 227 228  207 208 229  207 228 229  208 209 230  208 229 230  210 211 232  210 231 232  211 212 233  211 232 233  212 213 234  212 233 234  213 214 235  213 234 235  214 215 236  214 235 236  215 216 237  215 236 237  216 217 238  216 237 238  217 218 239  217 238 239  218 219 240  218 239 240  219 220 241  219 240 241  220 221 242  220 241 242  221 222 243  221 242 243  222 223 244  222 243 244  223 224 245  223 244 245  224 225 246  224 245 246  225 226 247  225 246 247  226 227 248  226 247 248  227 228 249  227 248 249  228 229 250  228 249 250  229 230 251  229 250 251  231 232 253  231 252 253  232 233 254  232 253 254  233 234 255  233 254 255  234 235 256  234 255 256  235 236 257  235 256 257  236 237 258  236 257 258  237 238 259  237 258 259  238 239 260  238 259 260  239 240 261  239 260 261  240 241 262  240 261 262  241 242 263  241 262 263  242 243 264  242 263 264  243 244 265  243 264 265  244 245 266  244 265 266  245 246 267  245 266 267  246 247 268  246 267 268  247 248 269  247 268 269  248 249 270  248 269 270  249 250 271  249 270 271  250 251 272  250 271 272  </DataArray>
<DataArray  type="UInt32"  Name="offsets"  format="ascii">3 6 9 12 15 18 21 24 27 30 33 36 39 42 45 48 51 54 57 60 63 66 69 72 75 78 81 84 87 90 93 96 99 102 105 108 111 114 117 120 123 126 129 132 135 138 141 144 147 150 153 156 159 162 165 168 171 174 177 180 183 186 189 192 195 198 201 204 207 210 213 216 219 222 225 228 231 234 237 240 243 246 249 252 255 258 261 264 267 270 273 276 279 282 285 288 291 294 297 300 303 306 309 312 315 318 321 324 327 330 333 336 339 342 345 348 351 354 357 360 363 366 369 372 375 378 381 384 387 390 393 396 399 402 405 408 411 414 417 420 423 426 429 432 435 438 441 444 447 450 453 456 459 462 465 468 471 474 477 480 483 486 489 492 495 498 501 504 507 510 513 516 519 522 525 528 531 534 537 540 543 546 549 552 555 558 561 564 567 570 573 576 579 582 585 588 591 594 597 600 603 606 609 612 615 618 621 624 627 630 633 636 639 642 645 648 651 654 657 660 663 666 669 672 675 678 681 684 687 690 693 696 699 702 705 708 711 714 717 720 723 726 729 732 735 738 741 744 747 750 753 756 759 762 765 768 771 774 777 780 783 786 789 792 795 798 801 804 807 810 813 816 819 822 825 828 831 834 837 840 843 846 849 852 855 858 861 864 867 870 873 876 879 882 885 888 891 894 897 900 903 906 909 912 915 918 921 924 927 930 933 936 939 942 945 948 951 954 957 960 963 966 969 972 975 978 981 984 987 990 993 996 999 1002 1005 1008 1011 1014 1017 1020 1023 1026 1029 1032 1035 1038 1041 1044 1047 1050 1053 1056 1059 1062 1065 1068 1071 1074 1077 1080 1083 1086 1089 1092 1095 1098 1101 1104 1107 1110 1113 1116 1119 1122 1125 1128 1131 1134 1137 1140 1143 1146 1149 1152 1155 1158 1161 1164 1167 1170 1173 1176 1179 1182 1185 1188 1191 1194 1197 1200 1203 1206 1209 1212 1215 1218 1221 1224 1227 1230 1233 1236 1239 1242 1245 1248 1251 1254 1257 1260 1263 1266 1269 1272 1275 1278 1281 1284 1287 1290 1293 1296 1299 1302 1305 1308 1311 1314 1317 1320 1323 1326 1329 1332 1335 1338 1341 1344 1347 1350 1353 1356 1359 1362 1365 1368 1371 1374 1377 1380 1383 1386 1389 1392 1395 1398 1401 1404 1407 1410 1413 1416 1419 1422 1425 1428 1431 1434 1437 1440 </DataArray>
<DataArray  type="UInt8"  Name="types"  format="ascii">5 5 5 5 5 5 5 5 5 5 5 5 5 5 5 5 5 5 5 5 5 5 5 5 5 5 5 5 5 5 5 5 5 5 5 5 5 5 5 5 5 5 5 5 5 5 5 5 5 5 5 5 5 5 5 5 5 5 5 5 5 5 5 5 5 5 5 5 5 5 5 5 5 5 5 5 5 5 5 5 5 5 5 5 5 5 5 5 5 5 5 5 5 5 5 5 5 5 5 5 5 5 5 5 5 5 5 5 5 5 5 5 5 5 5 5 5 5 5 5 5 5 5 5 5 5 5 5 5 5 5 5 5 5 5 5 5 5 5 5 5 5 5 5 5 5 5 5 5 5 5 5 5 5 5 5 5 5 5 5 5 5 5 5 5 5 5 5 5 5 5 5 5 5 5 5 5 5 5 5 5 5 5 5 5 5 5 5 5 5 5 5 5 5 5 5 5 5 5 5 5 5 5 5 5 5 5 5 5 5 5 5 5 5 5 5 5 5 5 5 5 5 5 5 5 5 5 5 5 5 5 5 5 5 5 5 5 5 5 5 5 5 5 5 5 5 5 5 5 5 5 5 5 5 5 5 5 5 5 5 5 5 5 5 5 5 5 5 5 5 5 5 5 5 5 5 5 5 5 5 5 5 5 5 5 5 5 5 5 5 5 5 5 5 5 5 5 5 5 5 5 5 5 5 5 5 5 5 5 5 5 5 5 5 5 5 5 5 5 5 5 5 5 5 5 5 5 5 5 5 5 5 5 5 5 5 5 5 5 5 5 5 5 5 5 5 5 5 5 5 5 5 5 5 5 5 5 5 5 5 5 5 5 5 5 5 5 5 5 5 5 5 5 5 5 5 5 5 5 5 5 5 5 5 5 5 5 5 5 5 5 5 5 5 5 5 5 5 5 5 5 5 5 5 5 5 5 5 5 5 5 5 5 5 5 5 5 5 5 5 5 5 5 5 5 5 5 5 5 5 5 5 5 5 5 5 5 5 5 5 5 5 5 5 5 5 5 5 5 5 5 5 5 5 5 5 5 5 5 5 5 5 5 5 5 5 5 5 5 5 5 5 5 5 5 5 5 5 5 5 </DataArray>
</Cells>
<PointData  Scalars="f_16"> 
<DataArray  type="Float64"  Name="f_16"  format="ascii">2.3743183518386019e+01  2.3736702305783819e+01  2.3735196443520152e+01  2.3738301091812538e+01  2.3748037656024671e+01  2.3768291829288270e+01  2.3805029749304179e+01  2.3866734741189450e+01  2.3964907233761924e+01  2.4114563365589042e+01  2.4334701645762717e+01  2.4648731495626716e+01  2.5084882250167411e+01  2.5676635692712665e+01  2.6463261253804731e+01  2.7490664122712957e+01  2.8813318058803929e+01  3.0497206784925247e+01  3.2613083039323449e+01  3.4960794960621271e+01  3.5910414948144769e+01  2.3691805287480928e+01  2.3691238220946083e+01  2.3691684154767835e+01  2.3695554102180999e+01  2.3705575035361065e+01  2.3725775293323842e+01  2.3762069009696681e+01  2.3822780080244069e+01  2.3919154718020216e+01  2.4065850144811364e+01  2.4281383686780721e+01  2.4588545138841209e+01  2.5014810705703169e+01  2.5592861241249093e+01  2.6361456549647009e+01  2.7367325721591172e+01  2.8669667392552938e+01  3.0348294525276241e+01  3.2495359185762098e+01  3.4959642221052981e+01  3.6149513444442491e+01  2.3563008959417346e+01  2.3564100914750536e+01  2.3566132978114130e+01  2.3570944993768876e+01  2.3581220932577253e+01  2.3600874101527804e+01  2.3635534833625194e+01  2.3693044853357812e+01  2.3783933561250713e+01  2.3921854360755958e+01  2.4123964936503810e+01  2.4411256578255440e+01  2.4808883413010626e+01  2.5346641441940310e+01  2.6059990372008915e+01  2.6992631553102566e+01  2.8202917306325205e+01  2.9776152570580795e+01  3.1822580965055689e+01  3.4273752772500735e+01  3.5737689686811621e+01  2.3365827338935421e+01  2.3367546805339948e+01  2.3370328175549965e+01  2.3375600414682072e+01  2.3385699483903284e+01  2.3404152057636058e+01  2.3436047570240781e+01  2.3488443262849106e+01  2.3570755528968434e+01  2.3695098914583081e+01  2.3876543218247509e+01  2.4133276631894418e+01  2.4486697072868090e+01  2.4961524368251389e+01  2.5586184881565046e+01  2.6394058177013203e+01  2.7426529257883363e+01  2.8736526557268199e+01  3.0370639808829726e+01  3.2212806083945061e+01  3.3326737089896469e+01  2.3115429396990148e+01  2.3117399474317931e+01  2.3120407613335328e+01  2.3125630279735852e+01  2.3135034856635627e+01  2.3151646149063151e+01  2.3179851581800737e+01  2.3225719617836649e+01  2.3297291762351048e+01  2.3404804193744081e+01  2.3560796514987729e+01  2.3780071806454735e+01  2.4079485028151808e+01  2.4477560489314957e+01  2.4993986167018019e+01  2.5649098254665706e+01  2.6463274612215002e+01  2.7453783932863434e+01  2.8613689347512828e+01  2.9811001015346278e+01  3.0462362705964885e+01  2.2830725237631604e+01  2.2832727041782114e+01  2.2835640737715000e+01  2.2840436121406519e+01  2.2848732556392591e+01  2.2863031097737021e+01  2.2886962451438421e+01  2.2925528409300668e+01  2.2985301034485161e+01  2.3074534849498711e+01  2.3203142701209970e+01  2.3382484528448835e+01  2.3624918140961547e+01  2.3943061651875080e+01  2.4348720498261294e+01  2.4851424999132064e+01  2.5456331924756942e+01  2.6159851975432904e+01  2.6934900444342478e+01  2.7677043563047352e+01  2.8045716538679208e+01  2.2532407663148035e+01  2.2534280598382900e+01  2.2536886982219837e+01  2.2541005170616359e+01  2.2547934625782432e+01  2.2559680133433957e+01  2.2579142111329208e+01  2.2610290097635328e+01  2.2658285212099500e+01  2.2729508382086706e+01  2.2831445291543776e+01  2.2972375906630049e+01  2.3160815228767156e+01  2.3404653436934385e+01  2.3709953126810721e+01  2.4079381366851685e+01  2.4510208469235206e+01  2.4991201344501984e+01  2.5494710665244963e+01  2.5950245664968136e+01  2.6163763506884866e+01  2.2241178533547338e+01  2.2242796684874492e+01  2.2244941887698914e+01  2.2248223530658436e+01  2.2253664741061641e+01  2.2262834663728125e+01  2.2277984804082887e+01  2.2302166578468807e+01  2.2339297390058707e+01  2.2394135749000526e+01  2.2472122137747391e+01  2.2579041841543869e+01  2.2720469648401892e+01  2.2900967169266181e+01  2.3123029444823352e+01  2.3385827875967550e+01  2.3683838798356796e+01  2.4005218168151170e+01  2.4328249911795499e+01  2.4608583203944956e+01  2.4735106772917248e+01  2.1976253302135014e+01  2.1977505127085166e+01  2.1979052666949041e+01  2.1981385260833960e+01  2.1985314399817010e+01  2.1992055963247285e+01  2.2003324195398921e+01  2.2021409825001076e+01  2.2049210756411259e+01  2.2090181323072699e+01  2.2148165514386559e+01  2.2227082566620425e+01  2.2330441904812670e+01  2.2460682255474282e+01  2.2618363819467671e+01  2.2801300370518341e+01  2.3003780507663386e+01  2.3215933172166871e+01  2.3422410871076700e+01  2.3596095345525786e+01  2.3672407460755590e+01  2.1754237699580329e+01  2.1754975778774767e+01  2.1755750419468310e+01  2.1757027441555518e+01  2.1759485472020121e+01  2.1764072130776167e+01  2.1772081173033317e+01  2.1785211389489767e+01  2.1805579790524515e+01  2.1835663371708947e+01  2.1878144836518246e+01  2.1935642415308674e+01  2.2010314871694305e+01  2.2103352759849258e+01  2.2214400412521684e+01  2.2341003635125968e+01  2.2478230093071318e+01  2.2618557101337842e+01  2.2751562314707432e+01  2.2860701703468411e+01  2.2907570966894042e+01  2.1588403121981671e+01  2.1588304587213461e+01  2.1588018571393246e+01  2.1588130127852811e+01  2.1589231611747849e+01  2.1592055874604949e+01  2.1597575534419516e+01  2.1607057301169281e+01  2.1622066110183390e+01  2.1644406214169503e+01  2.1675983875910365e+01  2.1718580508943155e+01  2.1773536279811246e+01  2.1841363315163225e+01  2.1921336633896420e+01  2.2011150272267564e+01  2.2106762525335537e+01  2.2202514677703483e+01  2.2291222535752766e+01  2.2362401254998886e+01  2.2391991593899039e+01  2.1488332641841346e+01  2.1486491546600334e+01  2.1484725413399449e+01  2.1483662133217514e+01  2.1483685420281599e+01  2.1485302150125726e+01  2.1489244177062787e+01  2.1496498588112328e+01  2.1508295075604575e+01  2.1526042795359757e+01  2.1551203776795056e+01  2.1585095034029898e+01  2.1628623184670722e+01  2.1681973460204667e+01  2.1744300022448968e+01  2.1813495298908322e+01  2.1886140257255359e+01  2.1957697322039529e+01  2.2022696875424639e+01  2.2073474378863491e+01  2.2092415615605603e+01  2.1459919775622673e+01  2.1453597883709111e+01  2.1450269043296036e+01  2.1448489654237520e+01  2.1448047310883609e+01  2.1449231513966524e+01  2.1452652262028991e+01  2.1459190193354914e+01  2.1469958937249302e+01  2.1486235072415649e+01  2.1509333725015217e+01  2.1540420369387160e+01  2.1580263024188707e+01  2.1628947125962508e+01  2.1685598779902090e+01  2.1748188545407082e+01  2.1813502663372837e+01  2.1877309921694255e+01  2.1934405134800286e+01  2.1976911442516805e+01  2.1985080203452188e+01  </DataArray> 
</PointData> 
</Piece>
</UnstructuredGrid>
</VTKFile>