<?xml version="1.0"?>
<VTKFile type="UnstructuredGrid"  version="0.1"  >
<UnstructuredGrid>
<Piece  NumberOfPoints="567" NumberOfCells="1920">
<Points>
<DataArray  type="Float64"  NumberOfComponents="3"  format="ascii">0 0 0  8 0 0  16 0 0  24 0 0  32 0 0  40 0 0  48 0 0  56 0 0  64 0 0  72 0 0  80 0 0  88 0 0  96 0 0  104 0 0  112 0 0  120 0 0  128 0 0  136 0 0  144 0 0  152 0 0  160 0 0  0 1 0  8 1 0  16 1 0  24 1 0  32 1 0  40 1 0  48 1 0  56 1 0  64 1 0  72 1 0  80 1 0  88 1 0  96 1 0  104 1 0  112 1 0  120 1 0  128 1 0  136 1 0  144 1 0  152 1 0  160 1 0  0 2 0  8 2 0  16 2 0  24 2 0  32 2 0  40 2 0  48 2 0  56 2 0  64 2 0  72 2 0  80 2 0  88 2 0  96 2 0  104 2 0  112 2 0  120 2 0  128 2 0  136 2 0  144 2 0  152 2 0  160 2 0  0 0 1  8 0 1  16 0 1  24 0 1  32 0 1  40 0 1  48 0 1  56 0 1  64 0 1  72 0 1  80 0 1  88 0 1  96 0 1  104 0 1  112 0 1  120 0 1  128 0 1  136 0 1  144 0 1  152 0 1  160 0 1  0 1 1  8 1 1  16 1 1  24 1 1  32 1 1  40 1 1  48 1 1  56 1 1  64 1 1  72 1 1  80 1 1  88 1 1  96 1 1  104 1 1  112 1 1  120 1 1  128 1 1  136 1 1  144 1 1  152 1 1  160 1 1  0 2 1  8 2 1  16 2 1  24 2 1  32 2 1  40 2 1  48 2 1  56 2 1  64 2 1  72 2 1  80 2 1  88 2 1  96 2 1  104 2 1  112 2 1  120 2 1  128 2 1  136 2 1  144 2 1  152 2 1  160 2 1  0 0 2  8 0 2  16 0 2  24 0 2  32 0 2  40 0 2  48 0 2  56 0 2  64 0 2  72 0 2  80 0 2  88 0 2  96 0 2  104 0 2  112 0 2  120 0 2  128 0 2  136 0 2  144 0 2  152 0 2  160 0 2  0 1 2  8 1 2  16 1 2  24 1 2  32 1 2  40 1 2  48 1 2  56 1 2  64 1 2  72 1 2  80 1 2  88 1 2  96 1 2  104 1 2  112 1 2  120 1 2  128 1 2  136 1 2  144 1 2  152 1 2  160 1 2  0 2 2  8 2 2  16 2 2  24 2 2  32 2 2  40 2 2  48 2 2  56 2 2  64 2 2  72 2 2  80 2 2  88 2 2  96 2 2  104 2 2  112 2 2  120 2 2  128 2 2  136 2 2  144 2 2  152 2 2  160 2 2  0 0 3  8 0 3  16 0 3  24 0 3  32 0 3  40 0 3  48 0 3  56 0 3  64 0 3  72 0 3  80 0 3  88 0 3  96 0 3  104 0 3  112 0 3  120 0 3  128 0 3  136 0 3  144 0 3  152 0 3  160 0 3  0 1 3  8 1 3  16 1 3  24 1 3  32 1 3  40 1 3  48 1 3  56 1 3  64 1 3  72 1 3  80 1 3  88 1 3  96 1 3  104 1 3  112 1 3  120 1 3  128 1 3  136 1 3  144 1 3  152 1 3  160 1 3  0 2 3  8 2 3  16 2 3  24 2 3  32 2 3  40 2 3  48 2 3  56 2 3  64 2 3  72 2 3  80 2 3  88 2 3  96 2 3  104 2 3  112 2 3  120 2 3  128 2 3  136 2 3  144 2 3  152 2 3  160 2 3  0 0 4  8 0 4  16 0 4  24 0 4  32 0 4  40 0 4  48 0 4  56 0 4  64 0 4  72 0 4  80 0 4  88 0 4  96 0 4  104 0 4  112 0 4  120 0 4  128 0 4  136 0 4  144 0 4  152 0 4  160 0 4  0 1 4  8 1 4  16 1 4  24 1 4  32 1 4  40 1 4  48 1 4  56 1 4  64 1 4  72 1 4  80 1 4  88 1 4  96 1 4  104 1 4  112 1 4  120 1 4  128 1 4  136 1 4  144 1 4  152 1 4  160 1 4  0 2 4  8 2 4  16 2 4  24 2 4  32 2 4  40 2 4  48 2 4  56 2 4  64 2 4  72 2 4  80 2 4  88 2 4  96 2 4  104 2 4  112 2 4  120 2 4  128 2 4  136 2 4  144 2 4  152 2 4  160 2 4  0 0 5  8 0 5  16 0 5  24 0 5  32 0 5  40 0 5  48 0 5  56 0 5  64 0 5  72 0 5  80 0 5  88 0 5  96 0 5  104 0 5  112 0 5  120 0 5  128 0 5  136 0 5  144 0 5  152 0 5  160 0 5  0 1 5  8 1 5  16 1 5  24 1 5  32 1 5  40 1 5  48 1 5  56 1 5  64 1 5  72 1 5  80 1 5  88 1 5  96 1 5  104 1 5  112 1 5  120 1 5  128 1 5  136 1 5  144 1 5  152 1 5  160 1 5  0 2 5  8 2 5  16 2 5  24 2 5  32 2 5  40 2 5  48 2 5  56 2 5  64 2 5  72 2 5  80 2 5  88 2 5  96 2 5  104 2 5  112 2 5  120 2 5  128 2 5  136 2 5  144 2 5  152 2 5  160 2 5  0 0 6  8 0 6  16 0 6  24 0 6  32 0 6  40 0 6  48 0 6  56 0 6  64 0 6  72 0 6  80 0 6  88 0 6  96 0 6  104 0 6  112 0 6  120 0 6  128 0 6  136 0 6  144 0 6  152 0 6  160 0 6  0 1 6  8 1 6  16 1 6  24 1 6  32 1 6  40 1 6  48 1 6  56 1 6  64 1 6  72 1 6  80 1 6  88 1 6  96 1 6  104 1 6  112 1 6  120 1 6  128 1 6  136 1 6  144 1 6  152 1 6  160 1 6  0 2 6  8 2 6  16 2 6  24 2 6  32 2 6  40 2 6  48 2 6  56 2 6  64 2 6  72 2 6  80 2 6  88 2 6  96 2 6  104 2 6  112 2 6  120 2 6  128 2 6  136 2 6  144 2 6  152 2 6  160 2 6  0 0 7  8 0 7  16 0 7  24 0 7  32 0 7  40 0 7  48 0 7  56 0 7  64 0 7  72 0 7  80 0 7  88 0 7  96 0 7  104 0 7  112 0 7  120 0 7  128 0 7  136 0 7  144 0 7  152 0 7  160 0 7  0 1 7  8 1 7  16 1 7  24 1 7  32 1 7  40 1 7  48 1 7  56 1 7  64 1 7  72 1 7  80 1 7  88 1 7  96 1 7  104 1 7  112 1 7  120 1 7  128 1 7  136 1 7  144 1 7  152 1 7  160 1 7  0 2 7  8 2 7  16 2 7  24 2 7  32 2 7  40 2 7  48 2 7  56 2 7  64 2 7  72 2 7  80 2 7  88 2 7  96 2 7  104 2 7  112 2 7  120 2 7  128 2 7  136 2 7  144 2 7  152 2 7  160 2 7  0 0 8  8 0 8  16 0 8  24 0 8  32 0 8  40 0 8  48 0 8  56 0 8  64 0 8  72 0 8  80 0 8  88 0 8  96 0 8  104 0 8  112 0 8  120 0 8  128 0 8  136 0 8  144 0 8  152 0 8  160 0 8  0 1 8  8 1 8  16 1 8  24 1 8  32 1 8  40 1 8  48 1 8  56 1 8  64 1 8  72 1 8  80 1 8  88 1 8  96 1 8  104 1 8  112 1 8  120 1 8  128 1 8  136 1 8  144 1 8  152 1 8  160 1 8  0 2 8  8 2 8  16 2 8  24 2 8  32 2 8  40 2 8  48 2 8  56 2 8  64 2 8  72 2 8  80 2 8  88 2 8  96 2 8  104 2 8  112 2 8  120 2 8  128 2 8  136 2 8  144 2 8  152 2 8  160 2 8  </DataArray>
</Points>
<Cells>
<DataArray  type="UInt32"  Name="connectivity"  format="ascii">0 1 22 85  0 1 64 85  0 63 64 85  0 21 22 85  0 63 84 85  0 21 84 85  1 2 23 86  1 2 65 86  1 64 65 86  1 22 23 86  1 64 85 86  1 22 85 86  2 3 24 87  2 3 66 87  2 65 66 87  2 23 24 87  2 65 86 87  2 23 86 87  3 4 25 88  3 4 67 88  3 66 67 88  3 24 25 88  3 66 87 88  3 24 87 88  4 5 26 89  4 5 68 89  4 67 68 89  4 25 26 89  4 67 88 89  4 25 88 89  5 6 27 90  5 6 69 90  5 68 69 90  5 26 27 90  5 68 89 90  5 26 89 90  6 7 28 91  6 7 70 91  6 69 70 91  6 27 28 91  6 69 90 91  6 27 90 91  7 8 29 92  7 8 71 92  7 70 71 92  7 28 29 92  7 70 91 92  7 28 91 92  8 9 30 93  8 9 72 93  8 71 72 93  8 29 30 93  8 71 92 93  8 29 92 93  9 10 31 94  9 10 73 94  9 72 73 94  9 30 31 94  9 72 93 94  9 30 93 94  10 11 32 95  10 11 74 95  10 73 74 95  10 31 32 95  10 73 94 95  10 31 94 95  11 12 33 96  11 12 75 96  11 74 75 96  11 32 33 96  11 74 95 96  11 32 95 96  12 13 34 97  12 13 76 97  12 75 76 97  12 33 34 97  12 75 96 97  12 33 96 97  13 14 35 98  13 14 77 98  13 76 77 98  13 34 35 98  13 76 97 98  13 34 97 98  14 15 36 99  14 15 78 99  14 77 78 99  14 35 36 99  14 77 98 99  14 35 98 99  15 16 37 100  15 16 79 100  15 78 79 100  15 36 37 100  15 78 99 100  15 36 99 100  16 17 38 101  16 17 80 101  16 79 80 101  16 37 38 101  16 79 100 101  16 37 100 101  17 18 39 102  17 18 81 102  17 80 81 102  17 38 39 102  17 80 101 102  17 38 101 102  18 19 40 103  18 19 82 103  18 81 82 103  18 39 40 103  18 81 102 103  18 39 102 103  19 20 41 104  19 20 83 104  19 82 83 104  19 40 41 104  19 82 103 104  19 40 103 104  21 22 43 106  21 22 85 106  21 84 85 106  21 42 43 106  21 84 105 106  21 42 105 106  22 23 44 107  22 23 86 107  22 85 86 107  22 43 44 107  22 85 106 107  22 43 106 107  23 24 45 108  23 24 87 108  23 86 87 108  23 44 45 108  23 86 107 108  23 44 107 108  24 25 46 109  24 25 88 109  24 87 88 109  24 45 46 109  24 87 108 109  24 45 108 109  25 26 47 110  25 26 89 110  25 88 89 110  25 46 47 110  25 88 109 110  25 46 109 110  26 27 48 111  26 27 90 111  26 89 90 111  26 47 48 111  26 89 110 111  26 47 110 111  27 28 49 112  27 28 91 112  27 90 91 112  27 48 49 112  27 90 111 112  27 48 111 112  28 29 50 113  28 29 92 113  28 91 92 113  28 49 50 113  28 91 112 113  28 49 112 113  29 30 51 114  29 30 93 114  29 92 93 114  29 50 51 114  29 92 113 114  29 50 113 114  30 31 52 115  30 31 94 115  30 93 94 115  30 51 52 115  30 93 114 115  30 51 114 115  31 32 53 116  31 32 95 116  31 94 95 116  31 52 53 116  31 94 115 116  31 52 115 116  32 33 54 117  32 33 96 117  32 95 96 117  32 53 54 117  32 95 116 117  32 53 116 117  33 34 55 118  33 34 97 118  33 96 97 118  33 54 55 118  33 96 117 118  33 54 117 118  34 35 56 119  34 35 98 119  34 97 98 119  34 55 56 119  34 97 118 119  34 55 118 119  35 36 57 120  35 36 99 120  35 98 99 120  35 56 57 120  35 98 119 120  35 56 119 120  36 37 58 121  36 37 100 121  36 99 100 121  36 57 58 121  36 99 120 121  36 57 120 121  37 38 59 122  37 38 101 122  37 100 101 122  37 58 59 122  37 100 121 122  37 58 121 122  38 39 60 123  38 39 102 123  38 101 102 123  38 59 60 123  38 101 122 123  38 59 122 123  39 40 61 124  39 40 103 124  39 102 103 124  39 60 61 124  39 102 123 124  39 60 123 124  40 41 62 125  40 41 104 125  40 103 104 125  40 61 62 125  40 103 124 125  40 61 124 125  63 64 85 148  63 64 127 148  63 126 127 148  63 84 85 148  63 126 147 148  63 84 147 148  64 65 86 149  64 65 128 149  64 127 128 149  64 85 86 149  64 127 148 149  64 85 148 149  65 66 87 150  65 66 129 150  65 128 129 150  65 86 87 150  65 128 149 150  65 86 149 150  66 67 88 151  66 67 130 151  66 129 130 151  66 87 88 151  66 129 150 151  66 87 150 151  67 68 89 152  67 68 131 152  67 130 131 152  67 88 89 152  67 130 151 152  67 88 151 152  68 69 90 153  68 69 132 153  68 131 132 153  68 89 90 153  68 131 152 153  68 89 152 153  69 70 91 154  69 70 133 154  69 132 133 154  69 90 91 154  69 132 153 154  69 90 153 154  70 71 92 155  70 71 134 155  70 133 134 155  70 91 92 155  70 133 154 155  70 91 154 155  71 72 93 156  71 72 135 156  71 134 135 156  71 92 93 156  71 134 155 156  71 92 155 156  72 73 94 157  72 73 136 157  72 135 136 157  72 93 94 157  72 135 156 157  72 93 156 157  73 74 95 158  73 74 137 158  73 136 137 158  73 94 95 158  73 136 157 158  73 94 157 158  74 75 96 159  74 75 138 159  74 137 138 159  74 95 96 159  74 137 158 159  74 95 158 159  75 76 97 160  75 76 139 160  75 138 139 160  75 96 97 160  75 138 159 160  75 96 159 160  76 77 98 161  76 77 140 161  76 139 140 161  76 97 98 161  76 139 160 161  76 97 160 161  77 78 99 162  77 78 141 162  77 140 141 162  77 98 99 162  77 140 161 162  77 98 161 162  78 79 100 163  78 79 142 163  78 141 142 163  78 99 100 163  78 141 162 163  78 99 162 163  79 80 101 164  79 80 143 164  79 142 143 164  79 100 101 164  79 142 163 164  79 100 163 164  80 81 102 165  80 81 144 165  80 143 144 165  80 101 102 165  80 143 164 165  80 101 164 165  81 82 103 166  81 82 145 166  81 144 145 166  81 102 103 166  81 144 165 166  81 102 165 166  82 83 1
[...]
<PointData  Vectors="f_320"> 
<DataArray  type="Float64"  Name="f_320"  NumberOfComponents="3" format="ascii">0.0000000000000000e+00 0.0000000000000000e+00 0.0000000000000000e+00  -5.3657877718343694e-01 -2.9537977536458954e-03 -6.0368346001543971e-01  -1.0361940336699842e+00 1.3913361419238209e-02 -2.2055082581391314e+00  -1.4863123365710567e+00 4.2473785647089243e-02 -4.7587145751112514e+00  -1.8867141967886056e+00 8.0235265850853249e-02 -8.1624162144217323e+00  -2.2400916689731902e+00 1.2617305827583641e-01 -1.2319352181543621e+01  -2.5493897387770481e+00 1.7931664364575750e-01 -1.7138188111062323e+01  -2.8175487698406934e+00 2.3875505484111087e-01 -2.2533479743238701e+01  -3.0475072806997661e+00 3.0363458010563071e-01 -2.8425670121102669e+01  -3.2422038597716329e+00 3.7316141513560719e-01 -3.4741092673518715e+01  -3.4045772139676993e+00 4.4660298386143721e-01 -4.1411972862242564e+01  -3.5375660959374891e+00 5.2328853671476439e-01 -4.8376428839311146e+01  -3.6441092749408290e+00 6.0260941063480722e-01 -5.5578471707527527e+01  -3.7271455265551325e+00 6.8401914152263998e-01 -6.2968005626776815e+01  -3.7896136285834912e+00 7.6703351453001778e-01 -7.0500827859592036e+01  -3.8344523583990044e+00 8.5123059130411372e-01 -7.8138628793347650e+01  -3.8646004891064361e+00 9.3625073385647251e-01 -8.5848991950989102e+01  -3.8829968143090756e+00 1.0217966298117596e+00 -9.3605393981269884e+01  -3.8925804504024715e+00 1.1076333145372583e+00 -1.0138720458542628e+02  -3.8962907067428683e+00 1.1935887322080623e+00 -1.0917968725653890e+02  -3.8971032123440139e+00 1.2795607132487044e+00 -1.1697405905791007e+02  0.0000000000000000e+00 0.0000000000000000e+00 0.0000000000000000e+00  -5.2522997455111176e-01 1.4500294595281380e-02 -6.0525390896913389e-01  -1.0278641451272881e+00 2.9888492057950515e-02 -2.2067022084568335e+00  -1.4804914576471402e+00 5.6809969198034972e-02 -4.7603401081039562e+00  -1.8831358918154388e+00 9.2938836797194210e-02 -8.1644844181039993e+00  -2.2385519444234849e+00 1.3733316031465082e-01 -1.2321845166917678e+01  -2.5496988354473653e+00 1.8903136021383704e-01 -1.7141063424428417e+01  -2.8195258879148470e+00 2.4712414062266019e-01 -2.2536688279183231e+01  -3.0509795441037735e+00 3.1075830997399007e-01 -2.8429162749280007e+01  -3.2470061963494801e+00 3.7914025934816015e-01 -3.4744822818199111e+01  -3.4105523375043383e+00 4.5153748870904981e-01 -4.1415897525936671e+01  -3.5445645039218996e+00 5.2727927892446158e-01 -4.8380509019863247e+01  -3.6519892488364980e+00 6.0575697933073269e-01 -5.5582672569784023e+01  -3.7357731322698369e+00 6.8642413084349008e-01 -6.2972296572568474e+01  -3.7988627169112172e+00 7.6879652042533309e-01 -7.0505182553705225e+01  -3.8442045657538420e+00 8.5245220994159909e-01 -7.8143025167241404e+01  -3.8747452393417547e+00 9.3703156175287816e-01 -8.5853412190524622e+01  -3.8934313177766122e+00 1.0222372759765062e+00 -9.3609824502520766e+01  -3.9032096635171643e+00 1.1078344399356301e+00 -1.0139163607123545e+02  -3.9070282796519629e+00 1.1936504948832982e+00 -1.0918411477243787e+02  -3.9078730777519897e+00 1.2795872468139236e+00 -1.1697847691650716e+02  0.0000000000000000e+00 0.0000000000000000e+00 0.0000000000000000e+00  -5.1445052664606927e-01 3.1158492895446286e-02 -6.0411561294300942e-01  -1.0193306931525499e+00 4.5680639103050147e-02 -2.2049169870252698e+00  -1.4744915537480514e+00 7.1026125337866605e-02 -4.7591666445948251e+00  -1.8793888889572330e+00 1.0554457521939883e-01 -8.1640620593872235e+00  -2.2368545566017399e+00 1.4840696016434052e-01 -1.2322156164704706e+01  -2.5498610214880948e+00 1.9866907894354971e-01 -1.7142047705221117e+01  -2.8213667658129657e+00 2.5542478938171159e-01 -2.2538276452652852e+01  -3.0543262156532807e+00 3.1782165898863379e-01 -2.8431284864131204e+01  -3.2516935824720341e+00 3.8506632252693812e-01 -3.4747411350004313e+01  -3.4164231493940322e+00 4.5642636813158072e-01 -4.1418888489961574e+01  -3.5514692380305197e+00 5.3123111098971099e-01 -4.8383842413206153e+01  -3.6597861862231142e+00 6.0887191433491050e-01 -5.5586292551449858e+01  -3.7443283387301758e+00 6.8880232486952486e-01 -6.2976151536703711e+01  -3.8080500433185618e+00 7.7053813208078059e-01 -7.0509225157123424e+01  -3.8539056488744814e+00 8.5365739912610072e-01 -7.8147212334173204e+01  -3.8848495043360978e+00 9.3780049051146608e-01 -8.5857705099318281e+01  -3.9038359808322349e+00 1.0226701229913873e+00 -9.3614188544262660e+01  -3.9138196464287218e+00 1.1080314781150868e+00 -1.0139604077787676e+02  -3.9177571041776424e+00 1.1937116676262070e+00 -1.0918853342007614e+02  -3.9186366839603006e+00 1.2796164045909348e+00 -1.1698288966398337e+02  0.0000000000000000e+00 0.0000000000000000e+00 0.0000000000000000e+00  -3.9119859755970815e-01 -1.6267658647331543e-03 -5.8616130995000815e-01  -7.6922112094143924e-01 1.6310949571390201e-02 -2.1893904250229905e+00  -1.1075983581108524e+00 4.5095662920918531e-02 -4.7442303913924651e+00  -1.4085565312927648e+00 8.3172144244651955e-02 -8.1495688114353388e+00  -1.6742260887832690e+00 1.2941706814950821e-01 -1.2308049069754620e+01  -1.9068156944382546e+00 1.8283555509383789e-01 -1.7128330422975846e+01  -2.1085279453163768e+00 2.4250859814071032e-01 -2.2524968335540144e+01  -2.2815645864349712e+00 3.0758196797239662e-01 -2.8418405877675173e+01  -2.4281275615544899e+00 3.7726423004290582e-01 -3.4734976497122993e+01  -2.5504189373230850e+00 4.5082631654565380e-01 -4.1406905666065541e+01  -2.6506408251325908e+00 5.2760144534199072e-01 -4.8372311541551603e+01  -2.7309953528873878e+00 6.0698510892832047e-01 -5.5575205228503116e+01  -2.7936846549117131e+00 6.8843507535073389e-01 -6.2965490887414774e+01  -2.8409108679410151e+00 7.7147139045603352e-01 -7.0498965780398223e+01  -2.8748761290077871e+00 8.5567638105459765e-01 -7.8137320293331015e+01  -2.8977825731338531e+00 9.4069466169466409e-01 -8.5848137946783197e+01  -2.9118323482286779e+00 1.0262331511458709e+00 -9.3604895387444259e+01  -2.9192277503744473e+00 1.1120611163060081e+00 -1.0138696238171602e+02  -2.9221683377656369e+00 1.1980109913665098e+00 -1.0917960324336175e+02  -2.9228505176459190e+00 1.2839897841504000e+00 -1.1697402032450968e+02  0.0000000000000000e+00 0.0000000000000000e+00 0.0000000000000000e+00  -3.8803876893258304e-01 1.3818000775830341e-02 -5.8648524788440937e-01  -7.6911236578275444e-01 2.9575313813481635e-02 -2.1903631359075786e+00  -1.1090787808042506e+00 5.6906626205193968e-02 -4.7457231768735211e+00  -1.4114360710518086e+00 9.3632595147357403e-02 -8.1515214147708885e+00  -1.6783542161717402e+00 1.3861306932868001e-01 -1.2310432142585142e+01  -1.9120542374034073e+00 1.9084928171398111e-01 -1.7131099916932428e+01  -2.1147474755851841e+00 2.4942153053974508e-01 -2.2528075276733013e+01  -2.2886436200257703e+00 3.1347556125331572e-01 -2.8421801581982347e+01  -2.4359524384908622e+00 3.8221996835021649e-01 -3.4738614904895698e+01  -2.5588837930293735e+00 4.5492570040007407e-01 -4.1410744315592964e+01  -2.6596475827318864e+00 5.3092598247486555e-01 -4.8376311973120963e+01  -2.7404537211278921e+00 6.0961631012180395e-01 -5.5579333152029996e+01  -2.8035121276383839e+00 6.9045445266562722e-01 -6.2969716251191223e+01  -2.8510327240629247e+00 7.7296045647650702e-01 -7.0503262797030388e+01  -2.8852254328424043e+00 8.5671664857734031e-01 -7.8141667444239147e+01  -2.9083001755904148e+00 9.4136764406340478e-01 -8.5852517971168083e+01  -2.9224668866565322e+00 1.0266203674642564e+00 -9.3609295259222549e+01  -2.9299356373854786e+00 1.1122441010001034e+00 -1.0139137330477850e+02  -2.9329148580483682e+00 1.1980707206033896e+00 -1.0918402035494313e+02  -2.9336114313249788e+00 1.2840074446033083e+00 -1.1697844400633139e+02  0.0000000000000000e+00 0.0000000000000000e+00 0.0000000000000000e+00  -3.8566279666815401e-01 2.8808738107211809e-02 -5.8382563803375975e-01  -7.6882260991121065e-01 4.2800105981344969e-02 -2.1879023701515568e+00  -1.1103974000044010e+00 6.8751404833986424e-02 -4.7440160101859998e+00  -1.4141632014956418e+00 1.0413195124898135e-01 -8.1506253677073524e+00  -1.6823395382076831e+00 1.4784337975518824e-01 -1.2310314531946480e+01  -1.9171595333625671e+00 1.9889128016921198e-01 -1.7131696228352979e+01  -2.1208433024137245e+00 2.5635685325850222e-01 -2.2529314013652844e+01  -2.2956084952394762e+00 3.1938615608845328e-01 -2.8423611074534019e+01  -2.4436727039506310e+00 3.8718790592112329e-01 -3.4740925977868848e+01  -2.5672535850844915e+00 4.5903309895531430e-01 -4.1413491348783467e+01  -2.6685688249120774e+00 5.3425497920314946e-01 -4.8379433332624416e+01  -2.7498361223648131e+00 6.1224905001263785e-01 -5.5582771367497308e+01  -2.8132731818805330e+00 6.9247308414663078e-01 -6.2973418088313423e+01  -2.8610977103240076e+00 7.7444712988704023e-01 -7.0507179285138875e+01  -2.8955274156490769e+00 8.5775351608912154e-01 -7.8145753881781033e+01  -2.9187800064789227e+00 9.4203686107009021e-01 -8.5856733913986730e+01  -2.9330732049004737e+00 1.0270040995258787e+00 -9.3613604484921240e+01  -2.9406248164665558e+00 1.1124245395022598e+00 -1.0139574377572418e+02  -2.9436520658549252e+00 1.1981293494634642e+00 -1.0918842377939956e+02  -2.9443681297088609e+00 1.2840263250722013e+00 -1.1698286057410142e+02  0.0000000000000000e+00 0.0000000000000000e+00 0.0000000000000000e+00  -2.5585933029109009e-01 1.9039761872040230e-03 -5.7348851464484152e-01  -5.0962056851153004e-01 2.0085954204130906e-02 -2.1774528688458790e+00  -7.3553699987484100e-01 4.9057835909145739e-02 -4.7335653451057844e+00  -9.3635190584144179e-01 8.7310088337565761e-02 -8.1400875859189625e+00  -1.1136593598813016e+00 1.3372480100195033e-01 -1.2299693788365310e+01  -1.2689252229983028e+00 1.8728678575788177e-01 -1.7121033353020685e+01  -1.4036130941189862e+00 2.4707099853295636e-01 -2.2518658868414438e+01  -1.5191876689391304e+00 3.1222331436753142e-01 -2.8413012407125478e+01  -1.6171141534750380e+00 3.8195484650270950e-01 -3.4730427068405596e+01  -1.6988579332359006e+00 4.5554009015327274e-01 -4.1403128196511481e+01  -1.7658844605527160e+00 5.3231624971722435e-01 -4.8369233898839802e+01  -1.8196592144322858e+00 6.1168298077509353e-01 -5.5572755260118676e+01  -1.8616476848615224e+00 6.9310228717485167e-01 -6.2963596432024154e+01  -1.8933153664311260e+00 7.7609847839805113e-01 -7.0497554671805645e+01  -1.9161277557895102e+00 8.6025815049175502e-01 -7.8136320360837146e+01  -1.9315503496812296e+00 9.4523017660391750e-01 -8.5847477014227252e+01  -1.9410486369612148e+00 1.0307257105316459e+00 -9.3604501276414965e+01  -1.9460880278052337e+00 1.1165182564513227e+00 -1.0138676299827213e+02  -1.9481305220950165e+00 1.2024447532531828e+00 -1.0917952762077297e+02  -1.9486256238390780e+00 1.2884133223003023e+00 -1.1697398372271887e+02  0.0000000000000000e+00 0.0000000000000000e+00 0.0000000000000000e+00  -2.5535712050000209e-01 1.2314806748810898e-02 -5.7376723633258553e-01  -5.1176031748288708e-01 2.9000256398553990e-02 -2.1789081238665982e+00  -7.3901416065519399e-01 5.6956283493728069e-02 -4.7355094562883506e+00  -9.4099711634974037e-01 9.4304199970257935e-02 -8.1424546284320947e+00  -1.1193378137756675e+00 1.3987198425583303e-01 -1.2302444580328125e+01  -1.2755119312944347e+00 1.9264335580782915e-01 -1.7124123285764295e+01  -1.4109922882347306e+00 2.5169192526786582e-01 -2.2522041017024652e+01  -1.5272518329789806e+00 3.1616318993684178e-01 -2.8416641107047258e+01  -1.6257637249622372e+00 3.8526814719294755e-01 -3.4734259640236871e+01  -1.7080011989569392e+00 4.5828125370200823e-01 -4.1407125696181616e+01  -1.7754375175826058e+00 5.3453969989551930e-01 -4.8373361438456719e+01  -1.8295459549115847e+00 6.1344313595777944e-01 -5.5576982143579222e+01  -1.8717997898499015e+00 6.9445356354338494e-01 -6.2967896211321850e+01  -1.9036723033180165e+00 7.7709529117703213e-01 -7.0501905168663924e+01  -1.9266367770879143e+00 8.6095491444898342e-01 -7.8140703670958914e+01  -1.9421664925009412e+00 9.4568130629001368e-01 -8.5851879498347955e+01  -1.9517347225286714e+00 1.0309856193975786e+00 -9.3608913538693002e+01  -1.9568146774660635e+00 1.1166413262739598e+00 -1.0139117984620971e+02  -1.9588769811754621e+00 1.2024846678952694e+00 -1.0918394738762603e+02  -1.9593810804824034e+00 1.2884237263894536e+00 -1.1697841347129638e+02  0.0000000000000000e+00 0.0000000000000000e+00 0.0000000000000000e+00  -2.5549175341869601e-01 2.2692226674630302e-02 -5.7034407060684356e-01  -5.1375484239219671e-01 3.8142500833597638e-02 -2.1762107263026449e+00  -7.4237532575812648e-01 6.5081709784343689e-02 -4.7337245962249277e+00  -9.4553447546995928e-01 1.0150472657695346e-01 -8.1415141790382126e+00  -1.1249149946564394e+00 1.4620352321854083e-01 -1.2302288275078846e+01  -1.2820041282613026e+00 1.9816156447623937e-01 -1.7124680973939775e+01  -1.4182837111226307e+00 2.5645256178706516e-01 -2.2523240160299199e+01  -1.5352349582225295e+00 3.2022218388016699e-01 -2.8418410178463070e+01  -1.6343389876099386e+00 3.8868153320940896e-01 -3.4736529972179838e+01  -1.7170768850299685e+00 4.6110511511125646e-01 -4.1409832305675465e+01  -1.7849297239113993e+00 5.3683014084178238e-01 -4.8376443378948053e+01  -1.8393785735634516e+00 6.1525626941808031e-01 -5.5580382652468209e+01  -1.8819045018859422e+00 6.9584550645300625e-01 -6.2971562770943258e+01  -1.9139885761986248e+00 7.7812216275592982e-01 -7.0505789529851043e+01  -1.9371118635221174e+00 8.6167283633206604e-01 -7.8144761858210458e+01  -1.9527554298032164e+00 9.4614640422195140e-01 -8.5856071800415179e+01  -1.9624003306006323e+00 1.0312540244724735e+00 -9.3613204478535010e+01  -1.9675275380879620e+00 1.1167691479784583e+00 -1.0139553815823228e+02  -1.9696162654315372e+00 1.2025272229687090e+00 -1.0918834529322524e+02  -1.9701328681515387e+00 1.2884368233300418e+00 -1.1698283262682138e+02  0.0000000000000000e+00 0.0000000000000000e+00 0.0000000000000000e+00  -1.2487485566861345e-01 5.5488299364387459e-03 -5.6581081786899134e-01  -2.5264073437647500e-01 2.4192250901025492e-02 -2.1700084776855801e+00  -3.6577980366212076e-01 5.3387466098158712e-02 -4.7269281047861424e+00  -4.6624049324935218e-01 9.1802267920553488e-02 -8.1341707618060894e+00  -5.5498072680319077e-01 1.3835153956794577e-01 -1.2294465735557385e+01  -6.3272723339696346e-01 1.9201761294150343e-01 -1.7116457807750674e+01  -7.0020488143414295e-01 2.5187424502470440e-01 -2.2514694639789120e+01  -7.5814142949423369e-01 3.1706897775879445e-01 -2.8409616404170748e+01  -8.0726537761418415e-01 3.8681603138726645e-01 -3.4727555501456948e+01  -8.4830543993024632e-01 4.6039367660501596e-01 -4.1400737006532893e+01  -8.8199041318506510e-01 5.3714318859783339e-01 -4.8367278918808623e+01  -9.0904912882127831e-01 6.1646842055896878e-01 -5.5571192278556026e+01  -9.3021043298419037e-01 6.9783562710772928e-01 -6.2962381218408673e+01  -9.4620317822147026e-01 7.8077338927942286e-01 -7.0496642986176624e+01  -9.5775622048032694e-01 8.6487257932509765e-01 -7.8135667956010280e+01  -9.6559841675775704e-01 9.4978633858123518e-01 -8.5847039634786839e+01  -9.7045859203792673e-01 1.0352300668521439e+00 -9.3604234662389302e+01  -9.7306529888624271e-01 1.1209814896533319e+00 -1.0138662293074286e+02  -9.7414516068399626e-01 1.2068815694645862e+00 -1.0917947045226008e+02  -9.7442124735602487e-01 1.2928372480059005e+00 -1.1697395476096852e+02  0.0000000000000000e+00 0.0000000000000000e+00 0.0000000000000000e+00  -1.2560155722136662e-01 1.0767196756192299e-02 -5.6616846556463363e-01  -2.5543759726061971e-01 2.8643037659250463e-02 -2.1718015483186317e+00  -3.6983993206288557e-01 5.7296675052878415e-02 -4.7292399114986674e+00  -4.7139838374284637e-01 9.5259942294983510e-02 -8.1368879228635631e+00  -5.6110875204123045e-01 1.4138855137917214e-01 -1.2297533163679777e+01  -6.3970415619304488e-01 1.9466318735765795e-01 -1.7119826311049238e+01  -7.0791880534036866e-01 2.5415627717328038e-01 -2.2518317511830578e+01  -7.6648892142158842e-01 3.1901470427732354e-01 -2.8413449922407057e+01  -8.1615105755066086e-01 3.8845244067747192e-01 -3.4731559592333021e+01  -8.5764182134532618e-01 4.6174766453759236e-01 -4.1404875595532829e+01  -8.9169783906161715e-01 5.3824161514447744e-01 -4.8371520094726655e+01  -9.1905574539935297e-01 6.1733813127233561e-01 -5.5575508366357674e+01  -9.4045217878479959e-01 6.9850346158163212e-01 -6.2966748810283718e+01  -9.5662377924174191e-01 7.8126618452632468e-01 -7.0501042953690686e+01  -9.6830718763879464e-01 8.6521717111367547e-01 -7.8140085452497900e+01  -9.7623904378638215e-01 9.5000956152235183e-01 -8.5851464089282118e+01  -9.8115595474970230e-01 1.0353587473733246e+00 -9.3608659761563402e+01  -9.8379430105196741e-01 1.1210423885518053e+00 -1.0139104655095623e+02  -9.8488886610598558e-01 1.2069009780107050e+00 -1.0918389367538396e+02  -9.8517115961367518e-01 1.2928415815272845e+00 -1.1697838877527575e+02  0.0000000000000000e+00 0.0000000000000000e+00 0.0000000000000000e+00  -1.2671282827337549e-01 1.6073040908873480e-02 -5.6255754026258786e-01  -2.5815348283909695e-01 3.3312511457091798e-02 -2.1692017350640334e+00  -3.7383976634752919e-01 6.1417072126907925e-02 -4.7276561575770080e+00  -4.7650112392023047e-01 9.8915981754126719e-02 -8.1361517329542963e+00  -5.6718495547794390e-01 1.4460499073509336e-01 -1.2297563655820740e+01  -6.4663274996272568e-01 1.9746703283496164e-01 -1.7120547927636185e+01  -7.1558785153567106e-01 2.5657554599635829e-01 -2.2519656950205860e+01  -7.7479496376689549e-01 3.2107768827484301e-01 -2.8415336665507997e+01  -8.2499870724387103e-01 3.9018754144079332e-01 -3.4733926649983779e+01  -8.6694358867362176e-01 4.6318333401966805e-01 -4.1407659924516082e+01  -9.0137406580755253e-01 5.3940632751042905e-01 -4.8374662793846603e+01  -9.2903457733955397e-01 6.1826037031675185e-01 -5.5578954761816675e+01  -9.5066955427932587e-01 6.9921171543887306e-01 -6.2970448491830091e+01  -9.6702342429296795e-01 7.8178894380092434e-01 -7.0504949788840207e+01  -9.7884061333131811e-01 8.6558292906201373e-01 -7.8144157589746285e+01  -9.8686554371469737e-01 9.5024681596127325e-01 -8.5855663951940556e+01  -9.9184260113812139e-01 1.0354959966581418e+00 -9.3612954026356050e+01  -9.9451596563195466e-01 1.1211080763860641e+00 -1.0139540612717073e+02  -9.9562857980859787e-01 1.2069229857739927e+00 -1.0918829280162458e+02  -9.9591880018604206e-01 1.2928480629865551e+00 -1.1698281179565618e+02  0.0000000000000000e+00 0.0000000000000000e+00 0.0000000000000000e+00  4.1666105380236918e-03 9.2802710864145609e-03 -5.6304440824904312e-01  3.3743368318368259e-03 2.8569379779403676e-02 -2.1670561916790581e+00  3.1872605797995477e-03 5.8013415160215846e-02 -4.7242981737372842e+00  3.1399192596096048e-03 9.6590704625806628e-02 -8.1318052829628726e+00  3.0292581598300875e-03 1.4325061666325925e-01 -1.2292356516329857e+01  2.8638830506393636e-03 1.9698971525347711e-01 -1.7114597813835758e+01  2.6561486417791152e-03 2.5688671142350705e-01 -2.2513071433001528e+01  2.4149586589386511e-03 3.2209301863919543e-01 -2.8408215125612877e+01  2.1484451805498512e-03 3.9182682055431262e-01 -3.4726360344929937e+01  1.8645367070756582e-03 4.6537050673960462e-01 -4.1399731785251831e+01  1.5710800650320142e-03 5.4206956344197410e-01 -4.8366447289579071e+01  1.2758863704667338e-03 6.2133209965623115e-01 -5.5570517833041251e+01  9.8675130803447522e-04 7.0262864572945372e-01 -6.2961847520472375e+01  7.1146373936424893e-04 7.8549206654856307e-01 -7.0496233586490746e+01  4.5780879730119764e-04 8.6951752010968142e-01 -7.8135366396123430e+01  2.3357073624344105e-04 9.5436242908249058e-01 -8.5846829445908909e+01  4.6579073302584986e-05 1.0397464575162634e+00 -9.3604099365019877e+01  -9.4979446704792202e-05 1.1254515507609906e+00 -1.0138654599611147e+02  -1.8354492297548109e-04 1.2113223919879461e+00 -1.0917943485776455e+02  -2.2566029670285215e-04 1.2972638817645232e+00 -1.1697393616358113e+02  0.0000000000000000e+00 0.0000000000000000e+00 0.0000000000000000e+00  2.5583973694525857e-03 9.3307216815334514e-03 -5.6357532937019350e-01  2.9968424059325402e-04 2.8520207010209280e-02 -2.1691448987716133e+00  -1.1016172032417828e-03 5.7920188898726570e-02 -4.7269392900419