<?xml version="1.0"?>
<VTKFile type="UnstructuredGrid"  version="0.1"  >
<UnstructuredGrid>
<Piece  NumberOfPoints="1638" NumberOfCells="7200">
<Points>
<DataArray  type="Float64"  NumberOfComponents="3"  format="ascii">0 0 0  1 0 0  2 0 0  3 0 0  4 0 0  5 0 0  6 0 0  7 0 0  8 0 0  9 0 0  10 0 0  11 0 0  12 0 0  13 0 0  14 0 0  15 0 0  16 0 0  17 0 0  18 0 0  19 0 0  20 0 0  0 1 0  1 1 0  2 1 0  3 1 0  4 1 0  5 1 0  6 1 0  7 1 0  8 1 0  9 1 0  10 1 0  11 1 0  12 1 0  13 1 0  14 1 0  15 1 0  16 1 0  17 1 0  18 1 0  19 1 0  20 1 0  0 2 0  1 2 0  2 2 0  3 2 0  4 2 0  5 2 0  6 2 0  7 2 0  8 2 0  9 2 0  10 2 0  11 2 0  12 2 0  13 2 0  14 2 0  15 2 0  16 2 0  17 2 0  18 2 0  19 2 0  20 2 0  0 3 0  1 3 0  2 3 0  3 3 0  4 3 0  5 3 0  6 3 0  7 3 0  8 3 0  9 3 0  10 3 0  11 3 0  12 3 0  13 3 0  14 3 0  15 3 0  16 3 0  17 3 0  18 3 0  19 3 0  20 3 0  0 4 0  1 4 0  2 4 0  3 4 0  4 4 0  5 4 0  6 4 0  7 4 0  8 4 0  9 4 0  10 4 0  11 4 0  12 4 0  13 4 0  14 4 0  15 4 0  16 4 0  17 4 0  18 4 0  19 4 0  20 4 0  0 5 0  1 5 0  2 5 0  3 5 0  4 5 0  5 5 0  6 5 0  7 5 0  8 5 0  9 5 0  10 5 0  11 5 0  12 5 0  13 5 0  14 5 0  15 5 0  16 5 0  17 5 0  18 5 0  19 5 0  20 5 0  0 6 0  1 6 0  2 6 0  3 6 0  4 6 0  5 6 0  6 6 0  7 6 0  8 6 0  9 6 0  10 6 0  11 6 0  12 6 0  13 6 0  14 6 0  15 6 0  16 6 0  17 6 0  18 6 0  19 6 0  20 6 0  0 7 0  1 7 0  2 7 0  3 7 0  4 7 0  5 7 0  6 7 0  7 7 0  8 7 0  9 7 0  10 7 0  11 7 0  12 7 0  13 7 0  14 7 0  15 7 0  16 7 0  17 7 0  18 7 0  19 7 0  20 7 0  0 8 0  1 8 0  2 8 0  3 8 0  4 8 0  5 8 0  6 8 0  7 8 0  8 8 0  9 8 0  10 8 0  11 8 0  12 8 0  13 8 0  14 8 0  15 8 0  16 8 0  17 8 0  18 8 0  19 8 0  20 8 0  0 9 0  1 9 0  2 9 0  3 9 0  4 9 0  5 9 0  6 9 0  7 9 0  8 9 0  9 9 0  10 9 0  11 9 0  12 9 0  13 9 0  14 9 0  15 9 0  16 9 0  17 9 0  18 9 0  19 9 0  20 9 0  0 10 0  1 10 0  2 10 0  3 10 0  4 10 0  5 10 0  6 10 0  7 10 0  8 10 0  9 10 0  10 10 0  11 10 0  12 10 0  13 10 0  14 10 0  15 10 0  16 10 0  17 10 0  18 10 0  19 10 0  20 10 0  0 11 0  1 11 0  2 11 0  3 11 0  4 11 0  5 11 0  6 11 0  7 11 0  8 11 0  9 11 0  10 11 0  11 11 0  12 11 0  13 11 0  14 11 0  15 11 0  16 11 0  17 11 0  18 11 0  19 11 0  20 11 0  0 12 0  1 12 0  2 12 0  3 12 0  4 12 0  5 12 0  6 12 0  7 12 0  8 12 0  9 12 0  10 12 0  11 12 0  12 12 0  13 12 0  14 12 0  15 12 0  16 12 0  17 12 0  18 12 0  19 12 0  20 12 0  0 0 1  1 0 1  2 0 1  3 0 1  4 0 1  5 0 1  6 0 1  7 0 1  8 0 1  9 0 1  10 0 1  11 0 1  12 0 1  13 0 1  14 0 1  15 0 1  16 0 1  17 0 1  18 0 1  19 0 1  20 0 1  0 1 1  1 1 1  2 1 1  3 1 1  4 1 1  5 1 1  6 1 1  7 1 1  8 1 1  9 1 1  10 1 1  11 1 1  12 1 1  13 1 1  14 1 1  15 1 1  16 1 1  17 1 1  18 1 1  19 1 1  20 1 1  0 2 1  1 2 1  2 2 1  3 2 1  4 2 1  5 2 1  6 2 1  7 2 1  8 2 1  9 2 1  10 2 1  11 2 1  12 2 1  13 2 1  14 2 1  15 2 1  16 2 1  17 2 1  18 2 1  19 2 1  20 2 1  0 3 1  1 3 1  2 3 1  3 3 1  4 3 1  5 3 1  6 3 1  7 3 1  8 3 1  9 3 1  10 3 1  11 3 1  12 3 1  13 3 1  14 3 1  15 3 1  16 3 1  17 3 1  18 3 1  19 3 1  20 3 1  0 4 1  1 4 1  2 4 1  3 4 1  4 4 1  5 4 1  6 4 1  7 4 1  8 4 1  9 4 1  10 4 1  11 4 1  12 4 1  13 4 1  14 4 1  15 4 1  16 4 1  17 4 1  18 4 1  19 4 1  20 4 1  0 5 1  1 5 1  2 5 1  3 5 1  4 5 1  5 5 1  6 5 1  7 5 1  8 5 1  9 5 1  10 5 1  11 5 1  12 5 1  13 5 1  14 5 1  15 5 1  16 5 1  17 5 1  18 5 1  19 5 1  20 5 1  0 6 1  1 6 1  2 6 1  3 6 1  4 6 1  5 6 1  6 6 1  7 6 1  8 6 1  9 6 1  10 6 1  11 6 1  12 6 1  13 6 1  14 6 1  15 6 1  16 6 1  17 6 1  18 6 1  19 6 1  20 6 1  0 7 1  1 7 1  2 7 1  3 7 1  4 7 1  5 7 1  6 7 1  7 7 1  8 7 1  9 7 1  10 7 1  11 7 1  12 7 1  13 7 1  14 7 1  15 7 1  16 7 1  17 7 1  18 7 1  19 7 1  20 7 1  0 8 1  1 8 1  2 8 1  3 8 1  4 8 1  5 8 1  6 8 1  7 8 1  8 8 1  9 8 1  10 8 1  11 8 1  12 8 1  13 8 1  14 8 1  15 8 1  16 8 1  17 8 1  18 8 1  19 8 1  20 8 1  0 9 1  1 9 1  2 9 1  3 9 1  4 9 1  5 9 1  6 9 1  7 9 1  8 9 1  9 9 1  10 9 1  11 9 1  12 9 1  13 9 1  14 9 1  15 9 1  16 9 1  17 9 1  18 9 1  19 9 1  20 9 1  0 10 1  1 10 1  2 10 1  3 10 1  4 10 1  5 10 1  6 10 1  7 10 1  8 10 1  9 10 1  10 10 1  11 10 1  12 10 1  13 10 1  14 10 1  15 10 1  16 10 1  17 10 1  18 10 1  19 10 1  20 10 1  0 11 1  1 11 1  2 11 1  3 11 1  4 11 1  5 11 1  6 11 1  7 11 1  8 11 1  9 11 1  10 11 1  11 11 1  12 11 1  13 11 1  14 11 1  15 11 1  16 11 1  17 11 1  18 11 1  19 11 1  20 11 1  0 12 1  1 12 1  2 12 1  3 12 1  4 12 1  5 12 1  6 12 1  7 12 1  8 12 1  9 12 1  10 12 1  11 12 1  12 12 1  13 12 1  14 12 1  15 12 1  16 12 1  17 12 1  18 12 1  19 12 1  20 12 1  0 0 2  1 0 2  2 0 2  3 0 2  4 0 2  5 0 2  6 0 2  7 0 2  8 0 2  9 0 2  10 0 2  11 0 2  12 0 2  13 0 2  14 0 2  15 0 2  16 0 2  17 0 2  18 0 2  19 0 2  20 0 2  0 1 2  1 1 2  2 1 2  3 1 2  4 1 2  5 1 2  6 1 2  7 1 2  8 1 2  9 1 2  10 1 2  11 1 2  12 1 2  13 1 2  14 1 2  15 1 2  16 1 2  17 1 2  18 1 2  19 1 2  20 1 2  0 2 2  1 2 2  2 2 2  3 2 2  4 2 2  5 2 2  6 2 2  7 2 2  8 2 2  9 2 2  10 2 2  11 2 2  12 2 2  13 2 2  14 2 2  15 2 2  16 2 2  17 2 2  18 2 2  19 2 2  20 2 2  0 3 2  1 3 2  2 3 2  3 3 2  4 3 2  5 3 2  6 3 2  7 3 2  8 3 2  9 3 2  10 3 2  11 3 2  12 3 2  13 3 2  14 3 2  15 3 2  16 3 2  17 3 2  18 3 2  19 3 2  20 3 2  0 4 2  1 4 2  2 4 2  3 4 2  4 4 2  5 4 2  6 4 2  7 4 2  8 4 2  9 4 2  10 4 2  11 4 2  12 4 2  13 4 2  14 4 2  15 4 2  16 4 2  17 4 2  18 4 2  19 4 2  20 4 2  0 5 2  1 5 2  2 5 2  3 5 2  4 5 2  5 5 2  6 5 2  7 5 2  8 5 2  9 5 2  10 5 2  11 5 2  12 5 2  13 5 2  14 5 2  15 5 2  16 5 2  17 5 2  18 5 2  19 5 2  20 5 2  0 6 2  1 6 2  2 6 2  3 6 2  4 6 2  5 6 2  6 6 2  7 6 2  8 6 2  9 6 2  10 6 2  11 6 2  12 6 2  13 6 2  14 6 2  15 6 2  16 6 2  17 6 2  18 6 2  19 6 2  20 6 2  0 7 2  1 7 2  2 7 2  3 7 2  4 7 2  5 7 2  6 7 2  7 7 2  8 7 2  9 7 2  10 7 2  11 7 2  12 7 2  13 7 2  14 7 2  15 7 2  16 7 2  17 7 2  18 7 2  19 7 2  20 7 2  0 8 2  1 8 2  2 8 2  3 8 2  4 8 2  5 8 2  6 8 2  7 8 2  8 8 2  9 8 2  10 8 2  11 8 2  12 8 2  13 8 2  14 8 2  15 8 2  16 8 2  17 8 2  18 8 2  19 8 2  20 8 2  0 9 2  1 9 2  2 9 2  3 9 2  4 9 2  5 9 2  6 9 2  7 9 2  8 9 2  9 9 2  10 9 2  11 9 2  12 9 2  13 9 2  14 9 2  15 9 2  16 9 2  17 9 2  18 9 2  19 9 2  20 9 2  0 10 2  1 10 2  2 10 2  3 10 2  4 10 2  5 10 2  6 10 2  7 10 2  8 10 2  9 10 2  10 10 2  11 10 2  12 10 2  13 10 2  14 10 2  15 10 2  16 10 2  17 10 2  18 10 2  19 10 2  20 10 2  0 11 2  1 11 2  2 11 2  3 11 2  4 11 2  5 11 2  6 11 2  7 11 2  8 11 2  9 11 2  10 11 2  11 11 2  12 11 2  13 11 2  14 11 2  15 11 2  16 11 2  17 11 2  18 11 2  19 11 2  20 11 2  0 12 2  1 12 2  2 12 2  3 12 2  4 12 2  5 12 2  6 12 2  7 12 2  8 12 2  9 12 2  10 12 2  11 12 2  12 12 2  13 12 2  14 12 2  15 12 2  16 12 2  17 12 2  18 12 2  19 12 2  20 12 2  0 0 3  1 0 3  2 0 3  3 0 3  4 0 3  5 0 3  6 0 3  7 0 3  8 0 3  9 0 3  10 0 3  11 0 3  12 0 3  13 0 3  14 0 3  15 0 3  16 0 3  17 0 3  18 0 3  19 0 3  20 0 3  0 1 3  1 1 3  2 1 3  3 1 3  4 1 3  5 1 3  6 1 3  7 1 3  8 1 3  9 1 3  10 1 3  11 1 3  12 1 3  13 1 3  14 1 3  15 1 3  16 1 3  17 1 3  18 1 3  19 1 3  20 1 3  0 2 3  1 2 3  2 2 3  3 2 3  4 2 3  5 2 3  6 2 3  7 2 3  8 2 3  9 2 3  10 2 3  11 2 3  12 2 3  13 2 3  14 2 3  15 2 3  16 2 3  17 2 3  18 2 3  19 2 3  20 2 3  0 3 3  1 3 3  2 3 3  3 3 3  4 3 3  5 3 3  6 3 3  7 3 3  8 3 3  9 3 3  10 3 3  11 3 3  12 3 3  13 3 3  14 3 3  15 3 3  16 3 3  17 3 3  18 3 3  19 3 3  20 3 3  0 4 3  1 4 3  2 4 3  3 4 3  4 4 3  5 4 3  6 4 3  7 4 3  8 4 3  9 4 3  10 4 3  11 4 3  12 4 3  13 4 3  14 4 3  15 4 3  16 4 3  17 4 3  18 4 3  19 4 3  20 4 3  0 5 3  1 5 3  2 5 3  3 5 3  4 5 3  5 5 3  6 5 3  7 5 3  8 5 3  9 5 3  10 5 3  11 5 3  12 5 3  13 5 3  14 5 3  15 5 3  16 5 3  17 5 3  18 5 3  19 5 3  20 5 3  0 6 3  1 6 3  2 6 3  3 6 3  4 6 3  5 6 3  6 6 3  7 6 3  8 6 3  9 6 3  10 6 3  11 6 3  12 6 3  13 6 3  14 6 3  15 6 3  16 6 3  17 6 3  18 6 3  19 6 3  20 6 3  0 7 3  1 7 3  2 7 3  3 7 3  4 7 3  5 7 3  6 7 3  7 7 3  8 7 3  9 7 3  10 7 3  11 7 3  12 7 3  13 7 3  14 7 3  15 7 3  16 7 3  17 7 3  18 7 3  19 7 3  20 7 3  0 8 3  1 8 3  2 8 3  3 8 3  4 8 3  5 8 3  6 8 3  7 8 3  8 8 3  9 8 3  10 8 3  11 8 3  12 8 3  13 8 3  14 8 3  15 8 3  16 8 3  17 8 3  18 8 3  19 8 3  20 8 3  0 9 3  1 9 3  2 9 3  3 9 3  4 9 3  5 9 3  6 9 3  7 9 3  8 9 3  9 9 3  10 9 3  11 9 3  12 9 3  13 9 3  14 9 3  15 9 3  16 9 3  17 9 3  18 9 3  19 9 3  20 9 3  0 10 3  1 10 3  2 10 3  3 10 3  4 10 3  5 10 3  6 10 3  7 10 3  8 10 3  9 10 3  10 10 3  11 10 3  12 10 3  13 10 3  14 10 3  15 10 3  16 10 3  17 10 3  18 10 3  19 10 3  20 10 3  0 11 3  1 11 3  2 11 3  3 11 3  4 11 3  5 11 3  6 11 3  7 11 3  8 11 3  9 11 3  10 11 3  11 11 3  12 11 3  13 11 3  14 11 3  15 11 3  16 11 3  17 11 3  18 11 3  19 11 3  20 11 3  0 12 3  1 12 3  2 12 3  3 12 3  4 12 3  5 12 3  6 12 3  7 12 3  8 12 3  9 12 3  10 12 3  11 12 3  12 12 3  13 12 3  14 12 3  15 12 3  16 12 3  17 12 3  18 12 3  19 12 3  20 12 3  0 0 4  1 0 4  2 0 4  3 0 4  4 0 4  5 0 4  6 0 4  7 0 4  8 0 4  9 0 4  10 0 4  11 0 4  12 0 4  13 0 4  14 0 4  15 0 4  16 0 4  17 0 4  18 0 4  19 0 4  20 0 4  0 1 4  1 1 4  2 1 4  3 1 4  4 1 4  5 1 4  6 1 4  7 1 4  8 1 4  9 1 4  10 1 4  11 1 4  12 1 4  13 1 4  14 1 4  15 1 4  16 1 4  17 1 4  18 1 4  19 1 4  20 1 4  0 2 4  1 2 4  2 2 4  3 2 4  4 2 4  5 2 4  6 2 4  7 2 4  8 2 4  9 2 4  10 2 4  11 2 4  12 2 4  13 2 4  14 2 4  15 2 4  16 2 4  17 2 4  18 2 4  19 2 4  20 2 4  0 3 4  1 3 4  2 3 4  3 3 4  4 3 4  5 3 4  6 3 4  7 3 4  8 3 4  9 3 4  10 3 4  11 3 4  12 3 4  13 3 4  14 3 4  15 3 4  16 3 4  17 3 4  18 3 4  19 3 4  20 3 4  0 4 4  1 4 4  2 4 4  3 4 4  4 4 4  5 4 4  6 4 4  7 4 4  8 4 4  9 4 4  10 4 4  11 4 4  12 4 4  13 4 4  14 4 4  15 4 4  16 4 4  17 4 4  18 4 4  19 4 4  20 4 4  0 5 4  1 5 4  2 5 4  3 5 4  4 5 4  5 5 4  6 5 4  7 5 4  8 5 4  9 5 4  10 5 4  11 5 4  12 5 4  13 5 4  14 5 4  15 5 4  16 5 4  17 5 4  18 5 4  19 5 4  20 5 4  0 6 4  1 6 4  2 6 4  3 6 4  4 6 4  5 6 4  6 6 4  7 6 4  8 6 4  9 6 4  10 6 4  11 6 4  12 6 4  13 6 4  14 6 4  15 6 4  16 6 4  17 6 4  18 6 4  19 6 4  20 6 4  0 7 4  1 7 4  2 7 4  3 7 4  4 7 4  5 7 4  6 7 4  7 7 4  8 7 4  9 7 4  10 7 4  11 7 4  12 7 4  13 7 4  14 7 4  15 7 4  16 7 4  17 7 4  18 7 4  19 7 4  20 7 4  0 8 4  1 8 4  2 8 4  3 8 4  4 8 4  5 8 4  6 8 4 
[...]
<PointData  Scalars="f_16"> 
<DataArray  type="Float64"  Name="f_16"  format="ascii">2.0416559226865218e+01  2.0417311109636383e+01  2.0419568326178410e+01  2.0423311169212027e+01  2.0428499130474599e+01  2.0435078008949173e+01  2.0442978922449448e+01  2.0452115106873297e+01  2.0462376632523647e+01  2.0473622992524341e+01  2.0485674172391587e+01  2.0498301591953055e+01  2.0511220997137894e+01  2.0524089760115299e+01  2.0536510908388198e+01  2.0548045369805418e+01  2.0558232249708336e+01  2.0566614149901746e+01  2.0572759316339869e+01  2.0576259822019303e+01  2.0576650619288252e+01  2.0414077893533477e+01  2.0414909538233381e+01  2.0417157929161110e+01  2.0420848950427505e+01  2.0425955538213934e+01  2.0432427886544616e+01  2.0440199070621571e+01  2.0449183791988570e+01  2.0459273812665558e+01  2.0470330940061331e+01  2.0482178394591514e+01  2.0494591984718390e+01  2.0507293145946083e+01  2.0519946276097748e+01  2.0532162696028273e+01  2.0543512838928663e+01  2.0553546918045260e+01  2.0561822576104831e+01  2.0567936677363317e+01  2.0571560261275085e+01  2.0572490449767866e+01  2.0407977171564113e+01  2.0408819334739828e+01  2.0411003025133926e+01  2.0414556548483201e+01  2.0419459098716409e+01  2.0425665468435255e+01  2.0433112277645670e+01  2.0441717755170679e+01  2.0451377993162062e+01  2.0461960612861319e+01  2.0473296734472630e+01  2.0485172659716699e+01  2.0497323260486240e+01  2.0509429434486385e+01  2.0521121924676386e+01  2.0531993180287238e+01  2.0541617792208203e+01  2.0549580595358929e+01  2.0555510090155696e+01  2.0559112298529385e+01  2.0560184225041887e+01  2.0398550687021554e+01  2.0399362364492706e+01  2.0401421552848760e+01  2.0404752197483145e+01  2.0409335138201762e+01  2.0415128467020864e+01  2.0422072782059633e+01  2.0430091230188101e+01  2.0439086413292298e+01  2.0448934833939592e+01  2.0459479662254672e+01  2.0470523127449749e+01  2.0481820399165503e+01  2.0493077183040967e+01  2.0503953216816896e+01  2.0514073296496882e+01  2.0523046380288474e+01  2.0530491793343625e+01  2.0536069412343974e+01  2.0539505784850569e+01  2.0540588586172134e+01  2.0386402695156324e+01  2.0387157876016627e+01  2.0389043737404116e+01  2.0392079922068810e+01  2.0396247686634631e+01  2.0401507793831456e+01  2.0407805028911536e+01  2.0415068392134561e+01  2.0423208614879048e+01  2.0432113448161346e+01  2.0441641348557170e+01  2.0451614707331512e+01  2.0461814307057534e+01  2.0471977036449736e+01  2.0481798872273163e+01  2.0490944626168687e+01  2.0499064918514136e+01  2.0505819293516442e+01  2.0510902092489324e+01  2.0514062862330935e+01  2.0515096641523037e+01  2.0372350872311404e+01  2.0373031991534674e+01  2.0374710008242307e+01  2.0377400862266352e+01  2.0381086235111596e+01  2.0385729485756865e+01  2.0391279778467329e+01  2.0397672549061376e+01  2.0404827686242861e+01  2.0412645720368999e+01  2.0421002497750802e+01  2.0429743312665842e+01  2.0438677973139232e+01  2.0447578604195193e+01  2.0456181985219320e+01  2.0464197761737420e+01  2.0471322922167985e+01  2.0477261489771465e+01  2.0481746281373500e+01  2.0484555476034227e+01  2.0485503293769163e+01  2.0357351557665968e+01  2.0357947629057925e+01  2.0359398684638510e+01  2.0361717486365464e+01  2.0364886461336152e+01  2.0368871663725653e+01  2.0373626717645735e+01  2.0379093698803594e+01  2.0385202050494193e+01  2.0391865704002509e+01  2.0398978756862498e+01  2.0406410513902241e+01  2.0414001155104522e+01  2.0421559598992843e+01  2.0428865140889172e+01  2.0435674058603489e+01  2.0441731551169795e+01  2.0446788112984546e+01  2.0450617627477147e+01  2.0453031015849831e+01  2.0453868075917423e+01  2.0342427888318941e+01  2.0342933929768350e+01  2.0344154428310834e+01  2.0346099727279505e+01  2.0348753386283622e+01  2.0352084164524257e+01  2.0356049963714565e+01  2.0360599254297075e+01  2.0365670766255310e+01  2.0371191522277499e+01  2.0377073473521310e+01  2.0383209396631848e+01  2.0389469117570620e+01  2.0395697407185466e+01  2.0401714924832813e+01  2.0407323279990273e+01  2.0412314599598250e+01  2.0416484929027458e+01  2.0419649237827528e+01  2.0421652795386660e+01  2.0422364067272589e+01  2.0328598773596408e+01  2.0329015011386744e+01  2.0330015846340302e+01  2.0331610648651701e+01  2.0333784449471256e+01  2.0336508397467533e+01  2.0339744066687903e+01  2.0343445561036997e+01  2.0347559960468654e+01  2.0352026174543571e+01  2.0356772418910960e+01  2.0361712856553197e+01  2.0366744293672127e+01  2.0371744072950818e+01  2.0376570359554833e+01  2.0381065792751492e+01  2.0385064951862134e+01  2.0388405260390680e+01  2.0390939688684107e+01  2.0392546928787858e+01  2.0393125835143898e+01  2.0316812449308625e+01  2.0317142039521006e+01  2.0317946034182150e+01  2.0319235372137648e+01  2.0320996359840180e+01  2.0323201493369240e+01  2.0325814822069162e+01  2.0328794786783106e+01  2.0332095269662243e+01  2.0335665071859630e+01  2.0339446039852447e+01  2.0343370287431632e+01  2.0347357249151681e+01  2.0351311529472749e+01  2.0355122581468517e+01  2.0358667099559092e+01  2.0361814640468900e+01  2.0364436446652135e+01  2.0366416692715607e+01  2.0367663475286758e+01  2.0368108444450037e+01  2.0307891835889162e+01  2.0308133786145817e+01  2.0308771310243458e+01  2.0309819025047382e+01  2.0311261828529407e+01  2.0313071090328901e+01  2.0315211469252219e+01  2.0317644024855095e+01  2.0320327439096690e+01  2.0323217795970766e+01  2.0326267107420488e+01  2.0329420921539889e+01  2.0332615606814716e+01  2.0335776121874325e+01  2.0338815156891602e+01  2.0341634418704917e+01  2.0344128546780812e+01  2.0346191836201765e+01  2.0347727953807905e+01  2.0348663554890983e+01  2.0348965315527373e+01  2.0302507640004833e+01  2.0302632693798333e+01  2.0303137425446803e+01  2.0304024785017816e+01  2.0305267900712991e+01  2.0306832778944834e+01  2.0308682637403056e+01  2.0310779418295279e+01  2.0313084423873860e+01  2.0315558027766173e+01  2.0318158352795010e+01  2.0320839078743123e+01  2.0323546845751039e+01  2.0326218944388689e+01  2.0328782056157241e+01  2.0331152670776056e+01  2.0333239435671505e+01  2.0334947141578439e+01  2.0336181714409221e+01  2.0336858341594478e+01  2.0336943572223607e+01  2.0301228593475042e+01  2.0301092254785431e+01  2.0301516727992361e+01  2.0302350016813630e+01  2.0303534730031437e+01  2.0305029934684910e+01  2.0306797188264387e+01  2.0308798301877456e+01  2.0310995139486916e+01  2.0313349168897680e+01  2.0315820159762353e+01  2.0318364052967929e+01  2.0320930406053545e+01  2.0323460060753064e+01  2.0325883748356237e+01  2.0328122178834999e+01  2.0330087632600847e+01  2.0331685757916887e+01  2.0332811830014698e+01  2.0333313453974888e+01  2.0332748325060638e+01  2.0416415373836116e+01  2.0417016612939353e+01  2.0419232446935577e+01  2.0422953637967730e+01  2.0428122084833241e+01  2.0434679653678920e+01  2.0442556381672041e+01  2.0451665162683984e+01  2.0461896056212389e+01  2.0473108837351987e+01  2.0485124112866242e+01  2.0497714315287990e+01  2.0510596617192181e+01  2.0523430206018091e+01  2.0535820242852932e+01  2.0547330032216070e+01  2.0557501330507296e+01  2.0565880031177869e+01  2.0572039076562728e+01  2.0575573483369364e+01  2.0575964750055288e+01  2.0414120252830550e+01  2.0414862321890809e+01  2.0417081666678577e+01  2.0420758728784875e+01  2.0425855075038392e+01  2.0432317814164929e+01  2.0440078991008832e+01  2.0449052868672283e+01  2.0459131033575517e+01  2.0470175333809106e+01  2.0482009271995029e+01  2.0494409211286186e+01  2.0507097420176883e+01  2.0519739372472650e+01  2.0531947632031013e+01  2.0543293952578544e+01  2.0553329924941760e+01  2.0561614930779829e+01  2.0567749607333724e+01  2.0571419422300458e+01  2.0572498361824199e+01  2.0408088394569354e+01  2.0408847442317217e+01  2.0411006379647635e+01  2.0414549195808991e+01  2.0419445022198797e+01  2.0425645977298515e+01  2.0433087754001097e+01  2.0441688151589759e+01  2.0451343052810678e+01  2.0461920048605663e+01  2.0473250426677616e+01  2.0485120876387928e+01  2.0497266876637976e+01  2.0509370113907440e+01  2.0521062228538504e+01  2.0531936593972127e+01  2.0541568750589260e+01  2.0549544903668053e+01  2.0555497519124529e+01  2.0559149885956476e+01  2.0560383121512089e+01  2.0398690155508930e+01  2.0399423152662305e+01  2.0401460182782440e+01  2.0404782238691002e+01  2.0409360639181418e+01  2.0415151012088227e+01  2.0422093108938991e+01  2.0430109673973259e+01  2.0439103095350063e+01  2.0448949812267408e+01  2.0459493096243389e+01  2.0470535459643244e+01  2.0481832533174504e+01  2.0493090625376713e+01  2.0503970153106053e+01  2.0514096600151692e+01  2.0523079641801242e+01  2.0530539778135136e+01  2.0536140707643391e+01  2.0539625719696936e+01  2.0540861400729568e+01  2.0386552587041358e+01  2.0387235867209441e+01  2.0389102255740340e+01  2.0392131719392310e+01  2.0396296726674635e+01  2.0401555781935318e+01  2.0407852898884467e+01  2.0415116704609225e+01  2.0423257718818157e+01  2.0432163604847503e+01  2.0441692866212051e+01  2.0451668088851736e+01  2.0461870392851537e+01  2.0472037115058960e+01  2.0481864735139009e+01  2.0491018569565920e+01  2.0499149779983135e+01  2.0505918904182433e+01  2.0511023752519684e+01  2.0514229127922114e+01  2.0515401429248559e+01  2.0372500327290261e+01  2.0373118059547583e+01  2.0374779560294691e+01  2.0377465471328073e+01  2.0381149635818971e+01  2.0385793396136140e+01  2.0391345224599633e+01  2.0397740214068484e+01  2.0404898044895805e+01  2.0412719138074486e+01  2.0421079337271340e+01  2.0429824051373586e+01  2.0438763315889759e+01  2.0447669569360009e+01  2.0456279945424431e+01  2.0464304445107718e+01  2.0471440454730736e+01  2.0477392818293477e+01  2.0481897390648925e+01  2.0484745795226534e+01  2.0485815013201911e+01  2.0357492281296594e+01  2.0358034363801018e+01  2.0359471978804716e+01  2.0361787490827556e+01  2.0364956560077189e+01  2.0368943492839463e+01  2.0373701305831368e+01  2.0379171762476947e+01  2.0385284101494623e+01  2.0391952125259181e+01  2.0399069884215887e+01  2.0406506727266898e+01  2.0414102967120275e+01  2.0421667723164795e+01  2.0428980524994291e+01  2.0435797890130353e+01  2.0441865305579292e+01  2.0446933936421807e+01  2.0450780264015034e+01  2.0453226747004635e+01  2.0454166927532142e+01  2.0342552797934477e+01  2.0343014444503424e+01  2.0344224509591108e+01  2.0346167968140591e+01  2.0348822724095676e+01  2.0352156068965726e+01  2.0356125383931307e+01  2.0360678857860613e+01  2.0365755020635870e+01  2.0371280749643642e+01  2.0377167911642971e+01  2.0383309269359223e+01  2.0389574705826245e+01  2.0395809106328279e+01  2.0401833277411512e+01  2.0407448990276080e+01  2.0412448589351587e+01  2.0416628677811477e+01  2.0419806417712138e+01  2.0421836762493083e+01  2.0422633091774159e+01  2.0328701152504458e+01  2.0329082333875515e+01  2.0330075525910161e+01  2.0331669646766514e+01  2.0333845178890073e+01  2.0336572085698307e+01  2.0339811507296453e+01  2.0343517296056682e+01  2.0347636337429474e+01  2.0352107383903689e+01  2.0356858539059868e+01  2.0361803909957612e+01  2.0366840307476583e+01  2.0371845133041170e+01  2.0376676649443581e+01  2.0381177622528835e+01  2.0385182825413317e+01  2.0388530178937426e+01  2.0391074515252388e+01  2.0392702542760397e+01  2.0393349956979876e+01  2.0316884208904707e+01  2.0317187831039099e+01  2.0317986665651109e+01  2.0319276076703325e+01  2.0321038951137346e+01  2.0323246884348265e+01  2.0325863574347210e+01  2.0328847238028683e+01  2.0332151570156697e+01  2.0335725209800071e+01  2.0339509876873546e+01  2.0343437607885726e+01  2.0347427818352042e+01  2.0351385152259997e+01  2.0355199153988263e+01  2.0358746658258045e+01  2.0361897447653380e+01  2.0364523275201179e+01  2.0366509982128008e+01  2.0367772368608545e+01  2.0368272083348053e+01  2.0307917879980845e+01  2.0308143628398444e+01  2.0308777996691109e+01  2.0309825837780775e+01  2.0311269905170541e+01  2.0313080939264633e+01  2.0315223310283720e+01  2.0317657873752655e+01  2.0320343134421382e+01  2.0323235021578395e+01  2.0326285427920055e+01  2.0329439834676553e+01  2.0332634609392581e+01  2.0335794781810140e+01  2.0338833184533190e+01  2.0341651739896410e+01  2.0344145412816779e+01  2.0346209122863641e+01  2.0347748269528250e+01  2.0348695737025960e+01  2.0349043362869295e+01  2.0302445540159550e+01  2.0302566073561973e+01  2.0303067779102253e+01  2.0303953441583392e+01  2.0305195301032406e+01  2.0306758804840499e+01  2.0308606860563419e+01  2.0310701208192889e+01  2.0313002997128269e+01  2.0315472489037013e+01  2.0318067749259960e+01  2.0320742474904854e+01  2.0323443415970562e+01  2.0326108074562601e+01  2.0328663443981469e+01  2.0331026419984735e+01  2.0333106170405486e+01  2.0334808310138182e+01  2.0336040947586163e+01  2.0336727780755407e+01  2.0336866566254130e+01  2.0300934219160769e+01  2.0300789304900061e+01  2.0301200328948610e+01  2.0302023346210138e+01  2.0303197598844289e+01  2.0304680544397087e+01  2.0306433146962696e+01  2.0308417001625255e+01  2.0310593922816690e+01  2.0312925450516168e+01  2.0315371559300559e+01  2.0317888554083751e+01  2.0320426537848121e+01  2.0322927084466968e+01  2.0325321821816569e+01  2.0327532460741690e+01  2.0329472276839173e+01  2.0331047796785278e+01  2.0332155923408671e+01  2.0332659468164746e+01  2.0332278774963758e+01  2.0416319560891466e+01  2.0416887251360240e+01  2.0419075253621461e+01  2.0422775950640577e+01  2.0427927110187454e+01  2.0434467972242615e+01  2.0442327138425323e+01  2.0451416729546068e+01  2.0461626451901747e+01  2.0472816077715628e+01  2.0484806570631143e+01  2.0497371111402881e+01  2.0510228029755691e+01  2.0523038062293573e+01  2.0535408257937874e+01  2.0546904078632728e+01  2.0557069659467398e+01  2.0565453458360100e+01  2.0571630823464840e+01  2.0575196946768401e+01  2.0575626548002770e+01  2.0414087027620035e+01  2.0414802244751122e+01  2.0416997514228658e+01  2.0420656778347016e+01  2.0425738765190328e+01  2.0432188332008170e+01  2.0439936171596280e+01  2.0448895772518828e+01  2.0458958330148480e+01  2.0469985621760944e+01  2.0481801404658341e+01  2.0494182647848749e+01  2.0506852589809995e+01  2.0519478019468767e+01  2.0531673107991175e+01  2.0543011441207501e+01  2.0553046625278068e+01  2.0561340264272005e+01  2.0567495446856618e+01  2.0571199556585231e+01  2.0572319979585572e+01  2.0408112204149521e+01  2.0408847348171467e+01  2.0410985416317303e+01  2.0414513347255781e+01  2.0419397901078902e+01  2.0425589237415128e+01  2.0433021817189847e+01  2.0441612698270561e+01  2.0451257357266226e+01  2.0461823260468456e+01  2.0473141855265087e+01  2.0485000295003466e+01  2.0497134835188017e+01  2.0509228231540899e+01  2.0520913437659708e+01  2.0531785329026466e+01  2.0541421126430979e+01  2.0549409012794690e+01  2.0555384031399345e+01  2.0559072394089867e+01  2.0560349616980425e+01  2.0398752007823969e+01  2.0399463087121411e+01  2.0401481806288135e+01  2.0404791525587942e+01  2.0409361315140522e+01  2.0415145014403876e+01  2.0422081247599007e+01  2.0430092064536666e+01  2.0439079451283266e+01  2.0448919688150042e+01  2.0459456131501963e+01  2.0470491637669966e+01  2.0481782445695096e+01  2.0493035718092159e+01  2.0503912930305898e+01  2.0514040790099198e+01  2.0523030380788022e+01  2.0530503966790850e+01  2.0536127756075945e+01  2.0539648093270607e+01  2.0540926251514872e+01  2.0386636571733948e+01  2.0387300138630597e+01  2.0389150679982379e+01  2.0392170128133873e+01  2.0396328828901122e+01  2.0401583645802177e+01  2.0407877564419330e+01  2.0415138570448750e+01  2.0423276795977358e+01  2.0432179723445884e+01  2.0441705880381736e+01  2.0451678093484304e+01  2.0461877944037262e+01  2.0472043434749072e+01  2.0481871883665214e+01  2.0491029593750259e+01  2.0499168898685923e+01  2.0505951882503638e+01  2.0511078663072642e+01  2.0514316908349581e+01  2.0515528155465013e+01  2.0372594028654476e+01  2.0373194569961750e+01  2.0374842738398154e+01  2.0377520798758749e+01  2.0381200654582869e+01  2.0385842170634490e+01  2.0391392895081026e+01  2.0397787336854652e+01  2.0404944808991559e+01  2.0412765537224399e+01  2.0421125338617319e+01  2.0429869773590994e+01  2.0438809210802749e+01  2.0447716591803189e+01  2.0456329699837049e+01  2.0464359319705576e+01  2.0471503802732510e+01  2.0477469323788171e+01  2.0481993791760637e+01  2.0484871423949542e+01  2.0485975010195006e+01  2.0357585379693141e+01  2.0358112967804310e+01  2.0359539755624837e+01  2.0361849395557552e+01  2.0365015830109641e+01  2.0369002068623352e+01  2.0373760313898934e+01  2.0379231806141462e+01  2.0385345440759014e+01  2.0392014816389846e+01  2.0399133915737501e+01  2.0406572164474372e+01  2.0414170101103320e+01  2.0421737212785011e+01  2.0429053523913218e+01  2.0435876170571273e+01  2.0441951432339440e+01  2.0447031611177948e+01  2.0450894988923896e+01  2.0453366346029771e+01  2.0454335828464522e+01  2.0342635878992041e+01  2.0343085738009005e+01  2.0344287349919078e+01  2.0346226646838595e+01  2.0348880056369751e+01  2.0352213763954698e+01  2.0356184450663633e+01  2.0360739844416379e+01  2.0365818158419376e+01  2.0371346063601326e+01  2.0377235328416170e+01  2.0383378734501814e+01  2.0389646307736161e+01  2.0395883198317506e+01  2.0401910592502404e+01  2.0407530759675268e+01  2.0412536710296244e+01  2.0416726031869985e+01  2.0419917466173445e+01  2.0421968043414207e+01  2.0422788565377889e+01  2.0328764629134824e+01  2.0329136615948340e+01  2.0330123470437190e+01  2.0331714762803013e+01  2.0333889756219143e+01  2.0336617504455571e+01  2.0339858561368182e+01  2.0343566380071849e+01  2.0347687557904269e+01  2.0352160644707137e+01  2.0356913628018106e+01  2.0361860596507640e+01  2.0366898450250439e+01  2.0371904791103336e+01  2.0376738193422593e+01  2.0381241855161296e+01  2.0385251149104626e+01  2.0388604892387963e+01  2.0391159341037451e+01  2.0392803080341579e+01  2.0393469958919390e+01  2.0316917011140017e+01  2.0317213859849701e+01  2.0318008075908669e+01  2.0319295464391832e+01  2.0321057986519794e+01  2.0323266527766084e+01  2.0325884307908481e+01  2.0328869202026979e+01  2.0332174646439881e+01  2.0335749089450314e+01  2.0339534133451583e+01  2.0343461784783951e+01  2.0347451529964051e+01  2.0351408194336344e+01  2.0355221620563764e+01  2.0358769073681771e+01  2.0361920945755568e+01  2.0364549893209382e+01  2.0366543144757799e+01  2.0367817274941437e+01  2.0368332586407892e+01  2.0307905880238774e+01  2.0308127016210392e+01  2.0308757817508280e+01  2.0309803658889201e+01  2.0311246718901142e+01  2.0313057207298975e+01  2.0315199100057967e+01  2.0317632956176539e+01  2.0320317051548351e+01  2.0323207147435401e+01  2.0326255039133844e+01  2.0329406198571061e+01  2.0332597089814705e+01  2.0335752958925678e+01  2.0338786986539034e+01  2.0341601595360466e+01  2.0344092456600993e+01  2.0346155527346752e+01  2.0347697780356143e+01  2.0348654088601759e+01  2.0349015154197829e+01  2.0302372199784507e+01  2.0302488956673649e+01  2.0302986690645579e+01  2.0303869166317892e+01  2.0305108249591392e+01  2.0306668896999128e+01  2.0308513636922527e+01  2.0310603933298516e+01  2.0312900735688977e+01  2.0315364175794318e+01  2.0317952270276166e+01  2.0320618768977891e+01  2.0323310596855368e+01  2.0325965569863605e+01  2.0328511147491337e+01  2.0330864865430843e+01  2.0332936765520149e+01  2.0334633739937043e+01  2.0335865963129319e+01  2.0336560287438161e+01  2.0336714422977813e+01  2.0300801577421563e+01  2.0300645439036192e+01  2.0301049381989827e+01  2.0301866856914693e+01  2.0303035805842807e+01  2.0304512898336824e+01  2.0306258636553530e+01  2.0308234333989045e+01  2.0310401633224277e+01  2.0312721993883724e+01  2.0315155411497237e+01  2.0317658334789321e+01  2.0320181155749811e+01  2.0322665898859363e+01  2.0325044813557632e+01  2.0327240414216028e+01  2.0329167005022246e+01  2.0330732538800405e+01  2.0331836377074815e+01  2.0332346721058268e+01  2.0331990515868739e+01  2.0416236379006325e+01  2.0416788555016939e+01  2.0418954804738345e+01  2.0422636326531329e+01  2.0427770720825013e+01  2.0434295648536654e+01  2.0442138416722660e+01  2.0451210313003973e+01  2.0461400606646276e+01  2.0472568991101195e+01  2.0484536719228149e