<?xml version="1.0"?>
<VTKFile type="UnstructuredGrid"  version="0.1"  >
<UnstructuredGrid>
<Piece  NumberOfPoints="1638" NumberOfCells="7200">
<Points>
<DataArray  type="Float64"  NumberOfComponents="3"  format="ascii">0 0 0  1 0 0  2 0 0  3 0 0  4 0 0  5 0 0  6 0 0  7 0 0  8 0 0  9 0 0  10 0 0  11 0 0  12 0 0  13 0 0  14 0 0  15 0 0  16 0 0  17 0 0  18 0 0  19 0 0  20 0 0  0 1 0  1 1 0  2 1 0  3 1 0  4 1 0  5 1 0  6 1 0  7 1 0  8 1 0  9 1 0  10 1 0  11 1 0  12 1 0  13 1 0  14 1 0  15 1 0  16 1 0  17 1 0  18 1 0  19 1 0  20 1 0  0 2 0  1 2 0  2 2 0  3 2 0  4 2 0  5 2 0  6 2 0  7 2 0  8 2 0  9 2 0  10 2 0  11 2 0  12 2 0  13 2 0  14 2 0  15 2 0  16 2 0  17 2 0  18 2 0  19 2 0  20 2 0  0 3 0  1 3 0  2 3 0  3 3 0  4 3 0  5 3 0  6 3 0  7 3 0  8 3 0  9 3 0  10 3 0  11 3 0  12 3 0  13 3 0  14 3 0  15 3 0  16 3 0  17 3 0  18 3 0  19 3 0  20 3 0  0 4 0  1 4 0  2 4 0  3 4 0  4 4 0  5 4 0  6 4 0  7 4 0  8 4 0  9 4 0  10 4 0  11 4 0  12 4 0  13 4 0  14 4 0  15 4 0  16 4 0  17 4 0  18 4 0  19 4 0  20 4 0  0 5 0  1 5 0  2 5 0  3 5 0  4 5 0  5 5 0  6 5 0  7 5 0  8 5 0  9 5 0  10 5 0  11 5 0  12 5 0  13 5 0  14 5 0  15 5 0  16 5 0  17 5 0  18 5 0  19 5 0  20 5 0  0 6 0  1 6 0  2 6 0  3 6 0  4 6 0  5 6 0  6 6 0  7 6 0  8 6 0  9 6 0  10 6 0  11 6 0  12 6 0  13 6 0  14 6 0  15 6 0  16 6 0  17 6 0  18 6 0  19 6 0  20 6 0  0 7 0  1 7 0  2 7 0  3 7 0  4 7 0  5 7 0  6 7 0  7 7 0  8 7 0  9 7 0  10 7 0  11 7 0  12 7 0  13 7 0  14 7 0  15 7 0  16 7 0  17 7 0  18 7 0  19 7 0  20 7 0  0 8 0  1 8 0  2 8 0  3 8 0  4 8 0  5 8 0  6 8 0  7 8 0  8 8 0  9 8 0  10 8 0  11 8 0  12 8 0  13 8 0  14 8 0  15 8 0  16 8 0  17 8 0  18 8 0  19 8 0  20 8 0  0 9 0  1 9 0  2 9 0  3 9 0  4 9 0  5 9 0  6 9 0  7 9 0  8 9 0  9 9 0  10 9 0  11 9 0  12 9 0  13 9 0  14 9 0  15 9 0  16 9 0  17 9 0  18 9 0  19 9 0  20 9 0  0 10 0  1 10 0  2 10 0  3 10 0  4 10 0  5 10 0  6 10 0  7 10 0  8 10 0  9 10 0  10 10 0  11 10 0  12 10 0  13 10 0  14 10 0  15 10 0  16 10 0  17 10 0  18 10 0  19 10 0  20 10 0  0 11 0  1 11 0  2 11 0  3 11 0  4 11 0  5 11 0  6 11 0  7 11 0  8 11 0  9 11 0  10 11 0  11 11 0  12 11 0  13 11 0  14 11 0  15 11 0  16 11 0  17 11 0  18 11 0  19 11 0  20 11 0  0 12 0  1 12 0  2 12 0  3 12 0  4 12 0  5 12 0  6 12 0  7 12 0  8 12 0  9 12 0  10 12 0  11 12 0  12 12 0  13 12 0  14 12 0  15 12 0  16 12 0  17 12 0  18 12 0  19 12 0  20 12 0  0 0 1  1 0 1  2 0 1  3 0 1  4 0 1  5 0 1  6 0 1  7 0 1  8 0 1  9 0 1  10 0 1  11 0 1  12 0 1  13 0 1  14 0 1  15 0 1  16 0 1  17 0 1  18 0 1  19 0 1  20 0 1  0 1 1  1 1 1  2 1 1  3 1 1  4 1 1  5 1 1  6 1 1  7 1 1  8 1 1  9 1 1  10 1 1  11 1 1  12 1 1  13 1 1  14 1 1  15 1 1  16 1 1  17 1 1  18 1 1  19 1 1  20 1 1  0 2 1  1 2 1  2 2 1  3 2 1  4 2 1  5 2 1  6 2 1  7 2 1  8 2 1  9 2 1  10 2 1  11 2 1  12 2 1  13 2 1  14 2 1  15 2 1  16 2 1  17 2 1  18 2 1  19 2 1  20 2 1  0 3 1  1 3 1  2 3 1  3 3 1  4 3 1  5 3 1  6 3 1  7 3 1  8 3 1  9 3 1  10 3 1  11 3 1  12 3 1  13 3 1  14 3 1  15 3 1  16 3 1  17 3 1  18 3 1  19 3 1  20 3 1  0 4 1  1 4 1  2 4 1  3 4 1  4 4 1  5 4 1  6 4 1  7 4 1  8 4 1  9 4 1  10 4 1  11 4 1  12 4 1  13 4 1  14 4 1  15 4 1  16 4 1  17 4 1  18 4 1  19 4 1  20 4 1  0 5 1  1 5 1  2 5 1  3 5 1  4 5 1  5 5 1  6 5 1  7 5 1  8 5 1  9 5 1  10 5 1  11 5 1  12 5 1  13 5 1  14 5 1  15 5 1  16 5 1  17 5 1  18 5 1  19 5 1  20 5 1  0 6 1  1 6 1  2 6 1  3 6 1  4 6 1  5 6 1  6 6 1  7 6 1  8 6 1  9 6 1  10 6 1  11 6 1  12 6 1  13 6 1  14 6 1  15 6 1  16 6 1  17 6 1  18 6 1  19 6 1  20 6 1  0 7 1  1 7 1  2 7 1  3 7 1  4 7 1  5 7 1  6 7 1  7 7 1  8 7 1  9 7 1  10 7 1  11 7 1  12 7 1  13 7 1  14 7 1  15 7 1  16 7 1  17 7 1  18 7 1  19 7 1  20 7 1  0 8 1  1 8 1  2 8 1  3 8 1  4 8 1  5 8 1  6 8 1  7 8 1  8 8 1  9 8 1  10 8 1  11 8 1  12 8 1  13 8 1  14 8 1  15 8 1  16 8 1  17 8 1  18 8 1  19 8 1  20 8 1  0 9 1  1 9 1  2 9 1  3 9 1  4 9 1  5 9 1  6 9 1  7 9 1  8 9 1  9 9 1  10 9 1  11 9 1  12 9 1  13 9 1  14 9 1  15 9 1  16 9 1  17 9 1  18 9 1  19 9 1  20 9 1  0 10 1  1 10 1  2 10 1  3 10 1  4 10 1  5 10 1  6 10 1  7 10 1  8 10 1  9 10 1  10 10 1  11 10 1  12 10 1  13 10 1  14 10 1  15 10 1  16 10 1  17 10 1  18 10 1  19 10 1  20 10 1  0 11 1  1 11 1  2 11 1  3 11 1  4 11 1  5 11 1  6 11 1  7 11 1  8 11 1  9 11 1  10 11 1  11 11 1  12 11 1  13 11 1  14 11 1  15 11 1  16 11 1  17 11 1  18 11 1  19 11 1  20 11 1  0 12 1  1 12 1  2 12 1  3 12 1  4 12 1  5 12 1  6 12 1  7 12 1  8 12 1  9 12 1  10 12 1  11 12 1  12 12 1  13 12 1  14 12 1  15 12 1  16 12 1  17 12 1  18 12 1  19 12 1  20 12 1  0 0 2  1 0 2  2 0 2  3 0 2  4 0 2  5 0 2  6 0 2  7 0 2  8 0 2  9 0 2  10 0 2  11 0 2  12 0 2  13 0 2  14 0 2  15 0 2  16 0 2  17 0 2  18 0 2  19 0 2  20 0 2  0 1 2  1 1 2  2 1 2  3 1 2  4 1 2  5 1 2  6 1 2  7 1 2  8 1 2  9 1 2  10 1 2  11 1 2  12 1 2  13 1 2  14 1 2  15 1 2  16 1 2  17 1 2  18 1 2  19 1 2  20 1 2  0 2 2  1 2 2  2 2 2  3 2 2  4 2 2  5 2 2  6 2 2  7 2 2  8 2 2  9 2 2  10 2 2  11 2 2  12 2 2  13 2 2  14 2 2  15 2 2  16 2 2  17 2 2  18 2 2  19 2 2  20 2 2  0 3 2  1 3 2  2 3 2  3 3 2  4 3 2  5 3 2  6 3 2  7 3 2  8 3 2  9 3 2  10 3 2  11 3 2  12 3 2  13 3 2  14 3 2  15 3 2  16 3 2  17 3 2  18 3 2  19 3 2  20 3 2  0 4 2  1 4 2  2 4 2  3 4 2  4 4 2  5 4 2  6 4 2  7 4 2  8 4 2  9 4 2  10 4 2  11 4 2  12 4 2  13 4 2  14 4 2  15 4 2  16 4 2  17 4 2  18 4 2  19 4 2  20 4 2  0 5 2  1 5 2  2 5 2  3 5 2  4 5 2  5 5 2  6 5 2  7 5 2  8 5 2  9 5 2  10 5 2  11 5 2  12 5 2  13 5 2  14 5 2  15 5 2  16 5 2  17 5 2  18 5 2  19 5 2  20 5 2  0 6 2  1 6 2  2 6 2  3 6 2  4 6 2  5 6 2  6 6 2  7 6 2  8 6 2  9 6 2  10 6 2  11 6 2  12 6 2  13 6 2  14 6 2  15 6 2  16 6 2  17 6 2  18 6 2  19 6 2  20 6 2  0 7 2  1 7 2  2 7 2  3 7 2  4 7 2  5 7 2  6 7 2  7 7 2  8 7 2  9 7 2  10 7 2  11 7 2  12 7 2  13 7 2  14 7 2  15 7 2  16 7 2  17 7 2  18 7 2  19 7 2  20 7 2  0 8 2  1 8 2  2 8 2  3 8 2  4 8 2  5 8 2  6 8 2  7 8 2  8 8 2  9 8 2  10 8 2  11 8 2  12 8 2  13 8 2  14 8 2  15 8 2  16 8 2  17 8 2  18 8 2  19 8 2  20 8 2  0 9 2  1 9 2  2 9 2  3 9 2  4 9 2  5 9 2  6 9 2  7 9 2  8 9 2  9 9 2  10 9 2  11 9 2  12 9 2  13 9 2  14 9 2  15 9 2  16 9 2  17 9 2  18 9 2  19 9 2  20 9 2  0 10 2  1 10 2  2 10 2  3 10 2  4 10 2  5 10 2  6 10 2  7 10 2  8 10 2  9 10 2  10 10 2  11 10 2  12 10 2  13 10 2  14 10 2  15 10 2  16 10 2  17 10 2  18 10 2  19 10 2  20 10 2  0 11 2  1 11 2  2 11 2  3 11 2  4 11 2  5 11 2  6 11 2  7 11 2  8 11 2  9 11 2  10 11 2  11 11 2  12 11 2  13 11 2  14 11 2  15 11 2  16 11 2  17 11 2  18 11 2  19 11 2  20 11 2  0 12 2  1 12 2  2 12 2  3 12 2  4 12 2  5 12 2  6 12 2  7 12 2  8 12 2  9 12 2  10 12 2  11 12 2  12 12 2  13 12 2  14 12 2  15 12 2  16 12 2  17 12 2  18 12 2  19 12 2  20 12 2  0 0 3  1 0 3  2 0 3  3 0 3  4 0 3  5 0 3  6 0 3  7 0 3  8 0 3  9 0 3  10 0 3  11 0 3  12 0 3  13 0 3  14 0 3  15 0 3  16 0 3  17 0 3  18 0 3  19 0 3  20 0 3  0 1 3  1 1 3  2 1 3  3 1 3  4 1 3  5 1 3  6 1 3  7 1 3  8 1 3  9 1 3  10 1 3  11 1 3  12 1 3  13 1 3  14 1 3  15 1 3  16 1 3  17 1 3  18 1 3  19 1 3  20 1 3  0 2 3  1 2 3  2 2 3  3 2 3  4 2 3  5 2 3  6 2 3  7 2 3  8 2 3  9 2 3  10 2 3  11 2 3  12 2 3  13 2 3  14 2 3  15 2 3  16 2 3  17 2 3  18 2 3  19 2 3  20 2 3  0 3 3  1 3 3  2 3 3  3 3 3  4 3 3  5 3 3  6 3 3  7 3 3  8 3 3  9 3 3  10 3 3  11 3 3  12 3 3  13 3 3  14 3 3  15 3 3  16 3 3  17 3 3  18 3 3  19 3 3  20 3 3  0 4 3  1 4 3  2 4 3  3 4 3  4 4 3  5 4 3  6 4 3  7 4 3  8 4 3  9 4 3  10 4 3  11 4 3  12 4 3  13 4 3  14 4 3  15 4 3  16 4 3  17 4 3  18 4 3  19 4 3  20 4 3  0 5 3  1 5 3  2 5 3  3 5 3  4 5 3  5 5 3  6 5 3  7 5 3  8 5 3  9 5 3  10 5 3  11 5 3  12 5 3  13 5 3  14 5 3  15 5 3  16 5 3  17 5 3  18 5 3  19 5 3  20 5 3  0 6 3  1 6 3  2 6 3  3 6 3  4 6 3  5 6 3  6 6 3  7 6 3  8 6 3  9 6 3  10 6 3  11 6 3  12 6 3  13 6 3  14 6 3  15 6 3  16 6 3  17 6 3  18 6 3  19 6 3  20 6 3  0 7 3  1 7 3  2 7 3  3 7 3  4 7 3  5 7 3  6 7 3  7 7 3  8 7 3  9 7 3  10 7 3  11 7 3  12 7 3  13 7 3  14 7 3  15 7 3  16 7 3  17 7 3  18 7 3  19 7 3  20 7 3  0 8 3  1 8 3  2 8 3  3 8 3  4 8 3  5 8 3  6 8 3  7 8 3  8 8 3  9 8 3  10 8 3  11 8 3  12 8 3  13 8 3  14 8 3  15 8 3  16 8 3  17 8 3  18 8 3  19 8 3  20 8 3  0 9 3  1 9 3  2 9 3  3 9 3  4 9 3  5 9 3  6 9 3  7 9 3  8 9 3  9 9 3  10 9 3  11 9 3  12 9 3  13 9 3  14 9 3  15 9 3  16 9 3  17 9 3  18 9 3  19 9 3  20 9 3  0 10 3  1 10 3  2 10 3  3 10 3  4 10 3  5 10 3  6 10 3  7 10 3  8 10 3  9 10 3  10 10 3  11 10 3  12 10 3  13 10 3  14 10 3  15 10 3  16 10 3  17 10 3  18 10 3  19 10 3  20 10 3  0 11 3  1 11 3  2 11 3  3 11 3  4 11 3  5 11 3  6 11 3  7 11 3  8 11 3  9 11 3  10 11 3  11 11 3  12 11 3  13 11 3  14 11 3  15 11 3  16 11 3  17 11 3  18 11 3  19 11 3  20 11 3  0 12 3  1 12 3  2 12 3  3 12 3  4 12 3  5 12 3  6 12 3  7 12 3  8 12 3  9 12 3  10 12 3  11 12 3  12 12 3  13 12 3  14 12 3  15 12 3  16 12 3  17 12 3  18 12 3  19 12 3  20 12 3  0 0 4  1 0 4  2 0 4  3 0 4  4 0 4  5 0 4  6 0 4  7 0 4  8 0 4  9 0 4  10 0 4  11 0 4  12 0 4  13 0 4  14 0 4  15 0 4  16 0 4  17 0 4  18 0 4  19 0 4  20 0 4  0 1 4  1 1 4  2 1 4  3 1 4  4 1 4  5 1 4  6 1 4  7 1 4  8 1 4  9 1 4  10 1 4  11 1 4  12 1 4  13 1 4  14 1 4  15 1 4  16 1 4  17 1 4  18 1 4  19 1 4  20 1 4  0 2 4  1 2 4  2 2 4  3 2 4  4 2 4  5 2 4  6 2 4  7 2 4  8 2 4  9 2 4  10 2 4  11 2 4  12 2 4  13 2 4  14 2 4  15 2 4  16 2 4  17 2 4  18 2 4  19 2 4  20 2 4  0 3 4  1 3 4  2 3 4  3 3 4  4 3 4  5 3 4  6 3 4  7 3 4  8 3 4  9 3 4  10 3 4  11 3 4  12 3 4  13 3 4  14 3 4  15 3 4  16 3 4  17 3 4  18 3 4  19 3 4  20 3 4  0 4 4  1 4 4  2 4 4  3 4 4  4 4 4  5 4 4  6 4 4  7 4 4  8 4 4  9 4 4  10 4 4  11 4 4  12 4 4  13 4 4  14 4 4  15 4 4  16 4 4  17 4 4  18 4 4  19 4 4  20 4 4  0 5 4  1 5 4  2 5 4  3 5 4  4 5 4  5 5 4  6 5 4  7 5 4  8 5 4  9 5 4  10 5 4  11 5 4  12 5 4  13 5 4  14 5 4  15 5 4  16 5 4  17 5 4  18 5 4  19 5 4  20 5 4  0 6 4  1 6 4  2 6 4  3 6 4  4 6 4  5 6 4  6 6 4  7 6 4  8 6 4  9 6 4  10 6 4  11 6 4  12 6 4  13 6 4  14 6 4  15 6 4  16 6 4  17 6 4  18 6 4  19 6 4  20 6 4  0 7 4  1 7 4  2 7 4  3 7 4  4 7 4  5 7 4  6 7 4  7 7 4  8 7 4  9 7 4  10 7 4  11 7 4  12 7 4  13 7 4  14 7 4  15 7 4  16 7 4  17 7 4  18 7 4  19 7 4  20 7 4  0 8 4  1 8 4  2 8 4  3 8 4  4 8 4  5 8 4  6 8 4 
[...]
<PointData  Scalars="f_16"> 
<DataArray  type="Float64"  Name="f_16"  format="ascii">2.0389860595281188e+01  2.0390225318582058e+01  2.0391194116684151e+01  2.0392759944499108e+01  2.0394893119153817e+01  2.0397548312958470e+01  2.0400666962676084e+01  2.0404178696070982e+01  2.0408002684651038e+01  2.0412049180612467e+01  2.0416221322223596e+01  2.0420417229320620e+01  2.0424532372760304e+01  2.0428462167326156e+01  2.0432104699709075e+01  2.0435363453443887e+01  2.0438149805527772e+01  2.0440384855367491e+01  2.0441999485462901e+01  2.0442929312843088e+01  2.0443093727661761e+01  2.0389411176301589e+01  2.0389779900948547e+01  2.0390745285069151e+01  2.0392304379846273e+01  2.0394428389202805e+01  2.0397072365626940e+01  2.0400178064000180e+01  2.0403675445470192e+01  2.0407484044102798e+01  2.0411514504358372e+01  2.0415670382784697e+01  2.0419850238143891e+01  2.0423949995757312e+01  2.0427865538885733e+01  2.0431495446535660e+01  2.0434743761162125e+01  2.0437522629414577e+01  2.0439754615462096e+01  2.0441374471801119e+01  2.0442330363074657e+01  2.0442585672387040e+01  2.0388269208744575e+01  2.0388638944822009e+01  2.0389596741214916e+01  2.0391140948926221e+01  2.0393243759386390e+01  2.0395861043964743e+01  2.0398935348514865e+01  2.0402397463778090e+01  2.0406167817587047e+01  2.0410158017878285e+01  2.0414272649471162e+01  2.0418411353708894e+01  2.0422471180689566e+01  2.0426349172358933e+01  2.0429945105960581e+01  2.0433164302315920e+01  2.0435920386448775e+01  2.0438137881674702e+01  2.0439754473924282e+01  2.0440722242941590e+01  2.0441003011216907e+01  2.0386493798837581e+01  2.0386861076569190e+01  2.0387805821313076e+01  2.0389326757865724e+01  2.0391396878981325e+01  2.0393973037392399e+01  2.0396998887093204e+01  2.0400406449420075e+01  2.0404117505808319e+01  2.0408045135273543e+01  2.0412095498000202e+01  2.0416169895339447e+01  2.0420167098540777e+01  2.0423985908554602e+01  2.0427527882337085e+01  2.0430700137484404e+01  2.0433418125702307e+01  2.0435608226691613e+01  2.0437209832332069e+01  2.0438175618125246e+01  2.0438463799705954e+01  2.0384200019494155e+01  2.0384562063487969e+01  2.0385488792186838e+01  2.0386979112634450e+01  2.0389006786801716e+01  2.0391529763488112e+01  2.0394493026060662e+01  2.0397830122934948e+01  2.0401464542137493e+01  2.0405311231316844e+01  2.0409278358219886e+01  2.0413269340362195e+01  2.0417185137012137e+01  2.0420926767764101e+01  2.0424397994949750e+01  2.0427508080545650e+01  2.0430174496461671e+01  2.0432325400524253e+01  2.0433901453528804e+01  2.0434855538602466e+01  2.0435144371338080e+01  2.0381542356549854e+01  2.0381896967766497e+01  2.0382801805889894e+01  2.0384255954317787e+01  2.0386233992806062e+01  2.0388695060925354e+01  2.0391585613806267e+01  2.0394840914151111e+01  2.0398386383510683e+01  2.0402139098540495e+01  2.0406009520762701e+01  2.0409903486518402e+01  2.0413724450347811e+01  2.0417375946981181e+01  2.0420764209548416e+01  2.0423800852331141e+01  2.0426405488387815e+01  2.0428508076166235e+01  2.0430050550224692e+01  2.0430986335784052e+01  2.0431272063472811e+01  2.0378701678215602e+01  2.0379047187155738e+01  2.0379927602461510e+01  2.0381342245851776e+01  2.0383266584091839e+01  2.0385661002240258e+01  2.0388473481560617e+01  2.0391641066937503e+01  2.0395091201121186e+01  2.0398743197111745e+01  2.0402509933074818e+01  2.0406299795948517e+01  2.0410018867734280e+01  2.0413573320791730e+01  2.0416871960689452e+01  2.0419828825034205e+01  2.0422365707425900e+01  2.0424414399956973e+01  2.0425918219888661e+01  2.0426831480432543e+01  2.0427111449894973e+01  2.0375872221342657e+01  2.0376207466357940e+01  2.0377062341719242e+01  2.0378436560293903e+01  2.0380306546960497e+01  2.0382633920394312e+01  2.0385368134389090e+01  2.0388447952184684e+01  2.0391802778268499e+01  2.0395354110346808e+01  2.0399017197514887e+01  2.0402702933511247e+01  2.0406319981212349e+01  2.0409777096530636e+01  2.0412985592324123e+01  2.0415861853678464e+01  2.0418329778714433e+01  2.0420322947892512e+01  2.0421786106826065e+01  2.0422674666123260e+01  2.0422946895134000e+01  2.0373248378741977e+01  2.0373572573051092e+01  2.0374402072049890e+01  2.0375737321455013e+01  2.0377555756924899e+01  2.0379820106955243e+01  2.0382481106848488e+01  2.0385479031797136e+01  2.0388745041737433e+01  2.0392202613742498e+01  2.0395769160589754e+01  2.0399357871098594e+01  2.0402879771487804e+01  2.0406245977776457e+01  2.0409370082139056e+01  2.0412170588929040e+01  2.0414573283336782e+01  2.0416513352657059e+01  2.0417936874125136e+01  2.0418800412937564e+01  2.0419063466271755e+01  2.0371012118838880e+01  2.0371324336038153e+01  2.0372129458902773e+01  2.0373429332070739e+01  2.0375202308243150e+01  2.0377411885081155e+01  2.0380009710766316e+01  2.0382937222188151e+01  2.0386126996134379e+01  2.0389504149101292e+01  2.0392987908517611e+01  2.0396493398182841e+01  2.0399933638482420e+01  2.0403221731456394e+01  2.0406273174354467e+01  2.0409008220367351e+01  2.0411354177938843e+01  2.0413247490175955e+01  2.0414635258411224e+01  2.0415475049761877e+01  2.0415727825183584e+01  2.0369322629808678e+01  2.0369620017352108e+01  2.0370401728047081e+01  2.0371671677497137e+01  2.0373408357619866e+01  2.0375575274660530e+01  2.0378124420690945e+01  2.0380997931708180e+01  2.0384129369244249e+01  2.0387445049827431e+01  2.0390865556109613e+01  2.0394307467787065e+01  2.0397685307544013e+01  2.0400913668385719e+01  2.0403909463479266e+01  2.0406594215315060e+01  2.0408896275295088e+01  2.0410752824416210e+01  2.0412111373241192e+01  2.0412929828144296e+01  2.0413170670618303e+01  2.0368311730498348e+01  2.0368583140489761e+01  2.0369341513432861e+01  2.0370589165491072e+01  2.0372301788627485e+01  2.0374441592985320e+01  2.0376960271929526e+01  2.0379800196037447e+01  2.0382895456950315e+01  2.0386173080105294e+01  2.0389554470913641e+01  2.0392957100566726e+01  2.0396296412705045e+01  2.0399487910557784e+01  2.0402449360768195e+01  2.0405103023415890e+01  2.0407377782640197e+01  2.0409210987475063e+01  2.0410549634980249e+01  2.0411349943215662e+01  2.0411572736680920e+01  2.0368095483755834e+01  2.0368298393524494e+01  2.0369036833685541e+01  2.0370274650728746e+01  2.0371979106493367e+01  2.0374110414257430e+01  2.0376619807529007e+01  2.0379449632145313e+01  2.0382534111516058e+01  2.0385800475592021e+01  2.0389170374387675e+01  2.0392561545843485e+01  2.0395889708776519e+01  2.0399070636849316e+01  2.0402022347526785e+01  2.0404667311424632e+01  2.0406934542030630e+01  2.0408761310372316e+01  2.0410093762665021e+01  2.0410883217435323e+01  2.0411058993244673e+01  2.0389854604370381e+01  2.0390178351579344e+01  2.0391134592721713e+01  2.0392694761168983e+01  2.0394824123237925e+01  2.0397476058195515e+01  2.0400591641429418e+01  2.0404100407469802e+01  2.0407921530125719e+01  2.0411965305992616e+01  2.0416134939048550e+01  2.0420328626413408e+01  2.0424441923498101e+01  2.0428370337392934e+01  2.0432012062681920e+01  2.0435270729878933e+01  2.0438057965695762e+01  2.0440295398592816e+01  2.0441915199971262e+01  2.0442856004664073e+01  2.0443040123623490e+01  2.0389448709044043e+01  2.0389779545435708e+01  2.0390733812271371e+01  2.0392288262697754e+01  2.0394409494570951e+01  2.0397051392208070e+01  2.0400155369874170e+01  2.0403651281218838e+01  2.0407458634006439e+01  2.0411488080778543e+01  2.0415643202309788e+01  2.0419822589203399e+01  2.0423922202410786e+01  2.0427837964629209e+01  2.0431468503447871e+01  2.0434717935082475e+01  2.0437498549623701e+01  2.0439733265589993e+01  2.0441357941487261e+01  2.0442325064914574e+01  2.0442618628415310e+01  2.0388321346280282e+01  2.0388653162740720e+01  2.0389600211224568e+01  2.0391140139945630e+01  2.0393240554110204e+01  2.0395856183115420e+01  2.0398929238929345e+01  2.0402390400725871e+01  2.0406160060699246e+01  2.0410149822654279e+01  2.0414264281589762e+01  2.0418403095315071e+01  2.0422463333080589e+01  2.0426342058613585e+01  2.0429939078325582e+01  2.0433159764230584e+01  2.0435917857546663e+01  2.0438138211401615e+01  2.0439759667400693e+01  2.0440739115776847e+01  2.0441060724534836e+01  2.0386552117992576e+01  2.0386881780402121e+01  2.0387816019256928e+01  2.0389332904854577e+01  2.0391400863095768e+01  2.0393975614472033e+01  2.0397000481452064e+01  2.0400407371625629e+01  2.0404118026008639e+01  2.0408045513170606e+01  2.0412095996212347e+01  2.0416170785086400e+01  2.0420168661945780e+01  2.0423988441009627e+01  2.0427531699664438e+01  2.0430705597837250e+01  2.0433425695369717e+01  2.0435618699205175e+01  2.0437225175548523e+01  2.0438202669867568e+01  2.0438531630092953e+01  2.0384261204144334e+01  2.0384586323762164e+01  2.0385502832477080e+01  2.0386989308888364e+01  2.0389015013324649e+01  2.0391536777029827e+01  2.0394499254632812e+01  2.0397835879577386e+01  2.0401470096342745e+01  2.0405316837939175e+01  2.0409284270235169e+01  2.0413275814259165e+01  2.0417192435031335e+01  2.0420935160384840e+01  2.0424407768342832e+01  2.0427519558979029e+01  2.0430188108928238e+01  2.0432341900513418e+01  2.0433922760353163e+01  2.0434888377611735e+01  2.0435217292636743e+01  2.0381604439191442e+01  2.0381923050567980e+01  2.0382818000437879e+01  2.0384268507976770e+01  2.0386244747957949e+01  2.0388704763784123e+01  2.0391594686347034e+01  2.0394849663184537e+01  2.0398395070322621e+01  2.0402147966953493e+01  2.0406018809503902e+01  2.0409913434518238e+01  2.0413735299112400e+01  2.0417387943389659e+01  2.0420777613742761e+01  2.0423815960579574e+01  2.0426422699756376e+01  2.0428528109774369e+01  2.0430075270920195e+01  2.0431022314378239e+01  2.0431347203917198e+01  2.0378763096218549e+01  2.0379073655553292e+01  2.0379944537528488e+01  2.0381355733616086e+01  2.0383278419993623e+01  2.0385671911888792e+01  2.0388483872637302e+01  2.0391651232920221e+01  2.0395101389116849e+01  2.0398753635204010e+01  2.0402520842464138e+01  2.0406311396318433e+01  2.0410031379897884e+01  2.0413586969901221e+01  2.0416886984582792e+01  2.0419845497389446e+01  2.0422384403885783e+01  2.0424435811388914e+01  2.0425944159297345e+01  2.0426868357290775e+01  2.0427186490390493e+01  2.0375931548045646e+01  2.0376232950543361e+01  2.0377078649892290e+01  2.0378449594793114e+01  2.0380318043835711e+01  2.0382644575801976e+01  2.0385378334580611e+01  2.0388457971379975e+01  2.0391812844644182e+01  2.0395364432781982e+01  2.0399027977651055e+01  2.0402714371323952e+01  2.0406332278039940e+01  2.0409790458758906e+01  2.0413000240186477e+01  2.0415878044596322e+01  2.0418347872625500e+01  2.0420343616152930e+01  2.0421811120375327e+01  2.0422710286624365e+01  2.0423019702776966e+01  2.0373304170931796e+01  2.0373595661937308e+01  2.0374416331232652e+01  2.0375748449196081e+01  2.0377565418862758e+01  2.0379828962292279e+01  2.0382489514498872e+01  2.0385487241948901e+01  2.0388753260016916e+01  2.0392211027510676e+01  2.0395777951084558e+01  2.0399367219342686e+01  2.0402889861784196e+01  2.0406257001906251e+01  2.0409382248618456e+01  2.0412184146542142e+01  2.0414588585792849e+01  2.0416531063766488e+01  2.0417958739797275e+01  2.0418832579673023e+01  2.0419131963159497e+01  2.0371062614243435e+01  2.0371343355360558e+01  2.0372139975238728e+01  2.0373436810350309e+01  2.0375208334422858e+01  2.0377417075970111e+01  2.0380014393276859e+01  2.0382941618484995e+01  2.0386131286342248e+01  2.0389508497491853e+01  2.0392992475975166e+01  2.0396498348592047e+01  2.0399939142748945e+01  2.0403227972207340e+01  2.0406280355610107e+01  2.0409016591300112e+01  2.0411364097297142e+01  2.0413259629643573e+01  2.0414651365391311e+01  2.0415501217165623e+01  2.0415789712239601e+01  2.0369364808996391e+01  2.0369632193668693e+01  2.0370405655349128e+01  2.0371672560400704e+01  2.0373407705219751e+01  2.0375573659747271e+01  2.0378122133012564e+01  2.0380995159649810e+01  2.0384126262784186e+01  2.0387441747489270e+01  2.0390862198196988e+01  2.0394304203450719e+01  2.0397682299346911e+01  2.0400911097362446e+01  2.0403907538922674e+01  2.0406593198363840e+01  2.0408896543046847e+01  2.0410755074018091e+01  2.0412117391380246e+01  2.0412945780290563e+01  2.0413222255952419e+01  2.0368338317913260e+01  2.0368580966045869e+01  2.0369330874289837e+01  2.0370575188501061e+01  2.0372285965313939e+01  2.0374424451308506e+01  2.0376942046102045e+01  2.0379781020174821e+01  2.0382875433683452e+01  2.0386152310432490e+01  2.0389533069171058e+01  2.0392935202581679e+01  2.0396274180892455e+01  2.0399465538862064e+01  2.0402427083420957e+01  2.0405081136038440e+01  2.0407356701572468e+01  2.0409191448355219e+01  2.0410533484147837e+01  2.0411343664309218e+01  2.0411603626082769e+01  2.0368086728707098e+01  2.0368252035579360e+01  2.0368979495617690e+01  2.0370212763518666e+01  2.0371914318045857e+01  2.0374043146368535e+01  2.0376550137006845e+01  2.0379377541068045e+01  2.0382459574560130e+01  2.0385723498101850e+01  2.0389091011856348e+01  2.0392479914544563e+01  2.0395805991531343e+01  2.0398985086450356e+01  2.0401935290729494e+01  2.0404579159227456e+01  2.0406845823613200e+01  2.0408672806457844e+01  2.0410007158667096e+01  2.0410804989413165e+01  2.0411027090193649e+01  2.0389851487457950e+01  2.0390164270376857e+01  2.0391111288384806e+01  2.0392665266485555e+01  2.0394790352870331e+01  2.0397439091650700e+01  2.0400552099759924e+01  2.0404058685401726e+01  2.0407877925718562e+01  2.0411920092543870e+01  2.0416088405761215e+01  2.0420281103009629e+01  2.0424393798682981e+01  2.0428322079758953e+01  2.0431964254452268e+01  2.0435224128852639e+01  2.0438013618276017e+01  2.0440254827746163e+01  2.0441880629514056e+01  2.0442830190904555e+01  2.0443023854071892e+01  2.0389458548239972e+01  2.0389778738044832e+01  2.0390724122487356e+01  2.0392272680929018e+01  2.0394389946763251e+01  2.0397028996375422e+01  2.0400130791871700e+01  2.0403624957116978e+01  2.0407430895224291e+01  2.0411459223543936e+01  2.0415613526747599e+01  2.0419792422764569e+01  2.0423891917283935e+01  2.0427807997420643e+01  2.0431439386976813e+01  2.0434690356670043e+01  2.0437473457905654e+01  2.0439712055282996e+01  2.0441342724037153e+01  2.0442318784647501e+01  2.0442622872327647e+01  2.0388342667826763e+01  2.0388663981362114e+01  2.0389602425995406e+01  2.0391136759793753e+01  2.0393233523179124e+01  2.0395846650224289e+01  2.0398917905329920e+01  2.0402377735313578e+01  2.0406146420817038e+01  2.0410135520989236e+01  2.0414249623621838e+01  2.0418388401582103e+01  2.0422448955635804e+01  2.0426328399723825e+01  2.0429926621000000e+01  2.0433149128945285e+01  2.0435909908948304e+01  2.0438134253757113e+01  2.0439761768471747e+01  2.0440750370766477e+01  2.0441083097367098e+01  2.0386581119881100e+01  2.0386900440356282e+01  2.0387826319899158e+01  2.0389337871272183e+01  2.0391402448463815e+01  2.0393974982284060e+01  2.0396998350806754e+01  2.0400404228048142e+01  2.0404114238955561e+01  2.0408041400785265e+01  2.0412091861406527e+01  2.0416166936910464e+01  2.0420165431425215e+01  2.0423986199361298e+01  2.0427530888442931e+01  2.0430706785686620e+01  2.0433429686649408e+01  2.0435626737706283e+01  2.0437239291174460e+01  2.0438225976393856e+01  2.0438566129324347e+01  2.0384294845421199e+01  2.0384609850144624e+01  2.0385518258958864e+01  2.0386999646872720e+01  2.0389022206525709e+01  2.0391541987395879e+01  2.0394503203957832e+01  2.0397839056426431e+01  2.0401472870719559e+01  2.0405319524199992e+01  2.0409287162040243e+01  2.0413279205285278e+01  2.0417196634459824e+01  2.0420940510976081e+01  2.0424414676622806e+01  2.0427528552357664e+01  2.0430199945506487e+01  2.0432357775601464e+01  2.0433944657193763e+01  2.0434919364789057e+01  2.0435259333541719e+01  2.0381640369197950e+01  2.0381949143408246e+01  2.0382836272080834e+01  2.0384281927763016e+01  2.0386255231201343e+01  2.0388713456176387e+01  2.0391602299750410e+01  2.0394856678246203e+01  2.0398401848377816e+01  2.0402154811268446e+01  2.0406025999284982e+01  2.0409921245161236e+01  2.0413744017538942e+01  2.0417397886162124e+01  2.0420789157387905e+01  2.0423829598843387e+01  2.0426439153348742e+01  2.0428548531949698e+01  2.0430101594517421e+01  2.0431057542799799e+01  2.0431393257696051e+01  2.0378799334504080e+01  2.0379100363077871e+01  2.0379963710130575e+01  2.0381370276125246e+01  2.0383290202769658e+01  2.0385682051542595e+01  2.0388493060468985e+01  2.0391659932690310e+01  2.0395109946123082e+01  2.0398762335963358e+01  2.0402529947941971e+01  2.0406321161882875e+01  2.0410042070653272e+01  2.0413598878940938e+01  2.0416900463426405e+01  2.0419861013069447e+01  2.0422402647730216e+01  2.0424457901778510e+01  2.0425971982444352e+01  2.0426904852063391e+01  2.0427233546335657e+01  2.0375966245988845e+01  2.0376258435690538e+01  2.0377096879404125e+01  2.0378463390121340e+01  2.0380329216057191e+01  2.0382654201423524e+01  2.0385387075414396e+01  2.0388466266955962e+01  2.0391821018381794e+01  2.0395372750223224e+01  2.0399036679078527e+01  2.0402723691583837e+01  2.0406342462001266e+01  2.0409801779776473e+01  2.0413013030637075e+01  2.0415892752640655e+01  2.0418365169655200e+01  2.0420364596132160e+01  2.0421837633931624e+01  2.0422745220623426e+01  2.0423064932199090e+01  2.0373335414796710e+01  2.0373618013852528e+01  2.0374431685633681e+01  2.0375759524889826e+01  2.0377573954857208e+01  2.0379835985852491e+01  2.0382495650715022e+01  2.0385492900222474e+01  2.0388758737337586e+01  2.0392216565445700e+01  2.0395783768013089e+01  2.0399373530332792e+01  2.0402896894303943e+01  2.0406265014567932e+01  2.0409391561852111e+01  2.0412195199090451e+01  2.0414602041013417e+01  2.0416548006090174e+01  2.0417981003199163e+01  2.0418863022679119e+01  2.0419172466396034e+01  2.0371088203035526e+01  2.0371360375482567e+01  2.0372150214506103e+01  2.0373442863135658e+01  2.0375211858168928e+01  2.0377419042723261e+01  2.0380015386185871e+01  2.0382942012155443e+01  2.0386131347678994e+01  2.0389508441937771e+01  2.0392992499732948e+01  2.0396498648791557e+01  2.0399939933532877e+01  2.0403229503801889e+01  2.0406282945173093e+01  2.0409020679339612e+01  2.0411370353539599e+01  2.0413269148559330e+01  2.0414665992981600e+01  2.0415523824474409e+01  2.0415822216835174e+01  2.0369382016573120e+01  2.0369641130555539e+01  2.0370407927102537e+01  2.0371670629850257e+01  2.0373403153183993e+01  2.0375567404088802e+01  2.0378114712186328e+01  2.0380986909371856e+01  2.0384117416272311e+01  2.0387432492044116e+01  2.0390852708015974e+01  2.0394294660384535e+01  2.0397672909450801e+01  2.0400902110232330e+01  2.0403899278571160e+01  2.0406586119510443e+01  2.0408891337193658e+01  2.0410752867229867e+01  2.0412120079468632e+01  2.0412956319258797e+01  2.0413242678187231e+01  2.0368344120297813e+01  2.0368578494477628e+01  2.0369321570687159e+01  2.0370561482339482e+01  2.0372269407886893e+01  2.0374405919296461e+01  2.0376922032482884e+01  2.0379759817057337e+01  2.0382853236088415e+01  2.0386129274967153e+01  2.0389509348196832e+01  2.0392910965853250e+01  2.0396249632576101e+01  2.0399440936877394e+01  2.0402402769769981e+01  2.0405057591964191e+01  2.0407334652488665e+01  2.0409172064196799e+01  2.0410518736716931e+01  2.0411336698439754e+01  2.0411606836439731e+01  2.0368081426518366e+01  2.0368237027868133e+01  2.0368956985272707e+01  2.0370185482236675e+01  2.0371883874743901e+01  2.0374010396100235e+01  2.0376515530742676e+01  2.0379341327726113e+01  2.0382421911633042e+01  2.0385684513299598e+01  2.0389050838838251e+01  2.0392438715415199e+01  2.0395763974152285e+01  2.0398942523435412e+01  2.0401892548522667e+01  2.0404536750498817e+01  2.0406804506698133e+01  2.0408633776899499e+01  2.0409972410237753e+01  2.0410777821186965e+01  2.0411010660026534e+01  2.0389849160964403e+01  2.0390156074542897e+01  2.0391095564636288e+01  2.0392643552829135e+01  2.0394764274576115e+01  2.0397409779111584e+01  2.0400520272774862e+01  2.0404024818449525e+01  2.0407842371752842e+01  2.0411883160594705e+01  2.0416050407432071e