<?xml version="1.0"?>
<VTKFile type="UnstructuredGrid"  version="0.1"  >
<UnstructuredGrid>
<Piece  NumberOfPoints="1638" NumberOfCells="7200">
<Points>
<DataArray  type="Float64"  NumberOfComponents="3"  format="ascii">0 0 0  1 0 0  2 0 0  3 0 0  4 0 0  5 0 0  6 0 0  7 0 0  8 0 0  9 0 0  10 0 0  11 0 0  12 0 0  13 0 0  14 0 0  15 0 0  16 0 0  17 0 0  18 0 0  19 0 0  20 0 0  0 1 0  1 1 0  2 1 0  3 1 0  4 1 0  5 1 0  6 1 0  7 1 0  8 1 0  9 1 0  10 1 0  11 1 0  12 1 0  13 1 0  14 1 0  15 1 0  16 1 0  17 1 0  18 1 0  19 1 0  20 1 0  0 2 0  1 2 0  2 2 0  3 2 0  4 2 0  5 2 0  6 2 0  7 2 0  8 2 0  9 2 0  10 2 0  11 2 0  12 2 0  13 2 0  14 2 0  15 2 0  16 2 0  17 2 0  18 2 0  19 2 0  20 2 0  0 3 0  1 3 0  2 3 0  3 3 0  4 3 0  5 3 0  6 3 0  7 3 0  8 3 0  9 3 0  10 3 0  11 3 0  12 3 0  13 3 0  14 3 0  15 3 0  16 3 0  17 3 0  18 3 0  19 3 0  20 3 0  0 4 0  1 4 0  2 4 0  3 4 0  4 4 0  5 4 0  6 4 0  7 4 0  8 4 0  9 4 0  10 4 0  11 4 0  12 4 0  13 4 0  14 4 0  15 4 0  16 4 0  17 4 0  18 4 0  19 4 0  20 4 0  0 5 0  1 5 0  2 5 0  3 5 0  4 5 0  5 5 0  6 5 0  7 5 0  8 5 0  9 5 0  10 5 0  11 5 0  12 5 0  13 5 0  14 5 0  15 5 0  16 5 0  17 5 0  18 5 0  19 5 0  20 5 0  0 6 0  1 6 0  2 6 0  3 6 0  4 6 0  5 6 0  6 6 0  7 6 0  8 6 0  9 6 0  10 6 0  11 6 0  12 6 0  13 6 0  14 6 0  15 6 0  16 6 0  17 6 0  18 6 0  19 6 0  20 6 0  0 7 0  1 7 0  2 7 0  3 7 0  4 7 0  5 7 0  6 7 0  7 7 0  8 7 0  9 7 0  10 7 0  11 7 0  12 7 0  13 7 0  14 7 0  15 7 0  16 7 0  17 7 0  18 7 0  19 7 0  20 7 0  0 8 0  1 8 0  2 8 0  3 8 0  4 8 0  5 8 0  6 8 0  7 8 0  8 8 0  9 8 0  10 8 0  11 8 0  12 8 0  13 8 0  14 8 0  15 8 0  16 8 0  17 8 0  18 8 0  19 8 0  20 8 0  0 9 0  1 9 0  2 9 0  3 9 0  4 9 0  5 9 0  6 9 0  7 9 0  8 9 0  9 9 0  10 9 0  11 9 0  12 9 0  13 9 0  14 9 0  15 9 0  16 9 0  17 9 0  18 9 0  19 9 0  20 9 0  0 10 0  1 10 0  2 10 0  3 10 0  4 10 0  5 10 0  6 10 0  7 10 0  8 10 0  9 10 0  10 10 0  11 10 0  12 10 0  13 10 0  14 10 0  15 10 0  16 10 0  17 10 0  18 10 0  19 10 0  20 10 0  0 11 0  1 11 0  2 11 0  3 11 0  4 11 0  5 11 0  6 11 0  7 11 0  8 11 0  9 11 0  10 11 0  11 11 0  12 11 0  13 11 0  14 11 0  15 11 0  16 11 0  17 11 0  18 11 0  19 11 0  20 11 0  0 12 0  1 12 0  2 12 0  3 12 0  4 12 0  5 12 0  6 12 0  7 12 0  8 12 0  9 12 0  10 12 0  11 12 0  12 12 0  13 12 0  14 12 0  15 12 0  16 12 0  17 12 0  18 12 0  19 12 0  20 12 0  0 0 1  1 0 1  2 0 1  3 0 1  4 0 1  5 0 1  6 0 1  7 0 1  8 0 1  9 0 1  10 0 1  11 0 1  12 0 1  13 0 1  14 0 1  15 0 1  16 0 1  17 0 1  18 0 1  19 0 1  20 0 1  0 1 1  1 1 1  2 1 1  3 1 1  4 1 1  5 1 1  6 1 1  7 1 1  8 1 1  9 1 1  10 1 1  11 1 1  12 1 1  13 1 1  14 1 1  15 1 1  16 1 1  17 1 1  18 1 1  19 1 1  20 1 1  0 2 1  1 2 1  2 2 1  3 2 1  4 2 1  5 2 1  6 2 1  7 2 1  8 2 1  9 2 1  10 2 1  11 2 1  12 2 1  13 2 1  14 2 1  15 2 1  16 2 1  17 2 1  18 2 1  19 2 1  20 2 1  0 3 1  1 3 1  2 3 1  3 3 1  4 3 1  5 3 1  6 3 1  7 3 1  8 3 1  9 3 1  10 3 1  11 3 1  12 3 1  13 3 1  14 3 1  15 3 1  16 3 1  17 3 1  18 3 1  19 3 1  20 3 1  0 4 1  1 4 1  2 4 1  3 4 1  4 4 1  5 4 1  6 4 1  7 4 1  8 4 1  9 4 1  10 4 1  11 4 1  12 4 1  13 4 1  14 4 1  15 4 1  16 4 1  17 4 1  18 4 1  19 4 1  20 4 1  0 5 1  1 5 1  2 5 1  3 5 1  4 5 1  5 5 1  6 5 1  7 5 1  8 5 1  9 5 1  10 5 1  11 5 1  12 5 1  13 5 1  14 5 1  15 5 1  16 5 1  17 5 1  18 5 1  19 5 1  20 5 1  0 6 1  1 6 1  2 6 1  3 6 1  4 6 1  5 6 1  6 6 1  7 6 1  8 6 1  9 6 1  10 6 1  11 6 1  12 6 1  13 6 1  14 6 1  15 6 1  16 6 1  17 6 1  18 6 1  19 6 1  20 6 1  0 7 1  1 7 1  2 7 1  3 7 1  4 7 1  5 7 1  6 7 1  7 7 1  8 7 1  9 7 1  10 7 1  11 7 1  12 7 1  13 7 1  14 7 1  15 7 1  16 7 1  17 7 1  18 7 1  19 7 1  20 7 1  0 8 1  1 8 1  2 8 1  3 8 1  4 8 1  5 8 1  6 8 1  7 8 1  8 8 1  9 8 1  10 8 1  11 8 1  12 8 1  13 8 1  14 8 1  15 8 1  16 8 1  17 8 1  18 8 1  19 8 1  20 8 1  0 9 1  1 9 1  2 9 1  3 9 1  4 9 1  5 9 1  6 9 1  7 9 1  8 9 1  9 9 1  10 9 1  11 9 1  12 9 1  13 9 1  14 9 1  15 9 1  16 9 1  17 9 1  18 9 1  19 9 1  20 9 1  0 10 1  1 10 1  2 10 1  3 10 1  4 10 1  5 10 1  6 10 1  7 10 1  8 10 1  9 10 1  10 10 1  11 10 1  12 10 1  13 10 1  14 10 1  15 10 1  16 10 1  17 10 1  18 10 1  19 10 1  20 10 1  0 11 1  1 11 1  2 11 1  3 11 1  4 11 1  5 11 1  6 11 1  7 11 1  8 11 1  9 11 1  10 11 1  11 11 1  12 11 1  13 11 1  14 11 1  15 11 1  16 11 1  17 11 1  18 11 1  19 11 1  20 11 1  0 12 1  1 12 1  2 12 1  3 12 1  4 12 1  5 12 1  6 12 1  7 12 1  8 12 1  9 12 1  10 12 1  11 12 1  12 12 1  13 12 1  14 12 1  15 12 1  16 12 1  17 12 1  18 12 1  19 12 1  20 12 1  0 0 2  1 0 2  2 0 2  3 0 2  4 0 2  5 0 2  6 0 2  7 0 2  8 0 2  9 0 2  10 0 2  11 0 2  12 0 2  13 0 2  14 0 2  15 0 2  16 0 2  17 0 2  18 0 2  19 0 2  20 0 2  0 1 2  1 1 2  2 1 2  3 1 2  4 1 2  5 1 2  6 1 2  7 1 2  8 1 2  9 1 2  10 1 2  11 1 2  12 1 2  13 1 2  14 1 2  15 1 2  16 1 2  17 1 2  18 1 2  19 1 2  20 1 2  0 2 2  1 2 2  2 2 2  3 2 2  4 2 2  5 2 2  6 2 2  7 2 2  8 2 2  9 2 2  10 2 2  11 2 2  12 2 2  13 2 2  14 2 2  15 2 2  16 2 2  17 2 2  18 2 2  19 2 2  20 2 2  0 3 2  1 3 2  2 3 2  3 3 2  4 3 2  5 3 2  6 3 2  7 3 2  8 3 2  9 3 2  10 3 2  11 3 2  12 3 2  13 3 2  14 3 2  15 3 2  16 3 2  17 3 2  18 3 2  19 3 2  20 3 2  0 4 2  1 4 2  2 4 2  3 4 2  4 4 2  5 4 2  6 4 2  7 4 2  8 4 2  9 4 2  10 4 2  11 4 2  12 4 2  13 4 2  14 4 2  15 4 2  16 4 2  17 4 2  18 4 2  19 4 2  20 4 2  0 5 2  1 5 2  2 5 2  3 5 2  4 5 2  5 5 2  6 5 2  7 5 2  8 5 2  9 5 2  10 5 2  11 5 2  12 5 2  13 5 2  14 5 2  15 5 2  16 5 2  17 5 2  18 5 2  19 5 2  20 5 2  0 6 2  1 6 2  2 6 2  3 6 2  4 6 2  5 6 2  6 6 2  7 6 2  8 6 2  9 6 2  10 6 2  11 6 2  12 6 2  13 6 2  14 6 2  15 6 2  16 6 2  17 6 2  18 6 2  19 6 2  20 6 2  0 7 2  1 7 2  2 7 2  3 7 2  4 7 2  5 7 2  6 7 2  7 7 2  8 7 2  9 7 2  10 7 2  11 7 2  12 7 2  13 7 2  14 7 2  15 7 2  16 7 2  17 7 2  18 7 2  19 7 2  20 7 2  0 8 2  1 8 2  2 8 2  3 8 2  4 8 2  5 8 2  6 8 2  7 8 2  8 8 2  9 8 2  10 8 2  11 8 2  12 8 2  13 8 2  14 8 2  15 8 2  16 8 2  17 8 2  18 8 2  19 8 2  20 8 2  0 9 2  1 9 2  2 9 2  3 9 2  4 9 2  5 9 2  6 9 2  7 9 2  8 9 2  9 9 2  10 9 2  11 9 2  12 9 2  13 9 2  14 9 2  15 9 2  16 9 2  17 9 2  18 9 2  19 9 2  20 9 2  0 10 2  1 10 2  2 10 2  3 10 2  4 10 2  5 10 2  6 10 2  7 10 2  8 10 2  9 10 2  10 10 2  11 10 2  12 10 2  13 10 2  14 10 2  15 10 2  16 10 2  17 10 2  18 10 2  19 10 2  20 10 2  0 11 2  1 11 2  2 11 2  3 11 2  4 11 2  5 11 2  6 11 2  7 11 2  8 11 2  9 11 2  10 11 2  11 11 2  12 11 2  13 11 2  14 11 2  15 11 2  16 11 2  17 11 2  18 11 2  19 11 2  20 11 2  0 12 2  1 12 2  2 12 2  3 12 2  4 12 2  5 12 2  6 12 2  7 12 2  8 12 2  9 12 2  10 12 2  11 12 2  12 12 2  13 12 2  14 12 2  15 12 2  16 12 2  17 12 2  18 12 2  19 12 2  20 12 2  0 0 3  1 0 3  2 0 3  3 0 3  4 0 3  5 0 3  6 0 3  7 0 3  8 0 3  9 0 3  10 0 3  11 0 3  12 0 3  13 0 3  14 0 3  15 0 3  16 0 3  17 0 3  18 0 3  19 0 3  20 0 3  0 1 3  1 1 3  2 1 3  3 1 3  4 1 3  5 1 3  6 1 3  7 1 3  8 1 3  9 1 3  10 1 3  11 1 3  12 1 3  13 1 3  14 1 3  15 1 3  16 1 3  17 1 3  18 1 3  19 1 3  20 1 3  0 2 3  1 2 3  2 2 3  3 2 3  4 2 3  5 2 3  6 2 3  7 2 3  8 2 3  9 2 3  10 2 3  11 2 3  12 2 3  13 2 3  14 2 3  15 2 3  16 2 3  17 2 3  18 2 3  19 2 3  20 2 3  0 3 3  1 3 3  2 3 3  3 3 3  4 3 3  5 3 3  6 3 3  7 3 3  8 3 3  9 3 3  10 3 3  11 3 3  12 3 3  13 3 3  14 3 3  15 3 3  16 3 3  17 3 3  18 3 3  19 3 3  20 3 3  0 4 3  1 4 3  2 4 3  3 4 3  4 4 3  5 4 3  6 4 3  7 4 3  8 4 3  9 4 3  10 4 3  11 4 3  12 4 3  13 4 3  14 4 3  15 4 3  16 4 3  17 4 3  18 4 3  19 4 3  20 4 3  0 5 3  1 5 3  2 5 3  3 5 3  4 5 3  5 5 3  6 5 3  7 5 3  8 5 3  9 5 3  10 5 3  11 5 3  12 5 3  13 5 3  14 5 3  15 5 3  16 5 3  17 5 3  18 5 3  19 5 3  20 5 3  0 6 3  1 6 3  2 6 3  3 6 3  4 6 3  5 6 3  6 6 3  7 6 3  8 6 3  9 6 3  10 6 3  11 6 3  12 6 3  13 6 3  14 6 3  15 6 3  16 6 3  17 6 3  18 6 3  19 6 3  20 6 3  0 7 3  1 7 3  2 7 3  3 7 3  4 7 3  5 7 3  6 7 3  7 7 3  8 7 3  9 7 3  10 7 3  11 7 3  12 7 3  13 7 3  14 7 3  15 7 3  16 7 3  17 7 3  18 7 3  19 7 3  20 7 3  0 8 3  1 8 3  2 8 3  3 8 3  4 8 3  5 8 3  6 8 3  7 8 3  8 8 3  9 8 3  10 8 3  11 8 3  12 8 3  13 8 3  14 8 3  15 8 3  16 8 3  17 8 3  18 8 3  19 8 3  20 8 3  0 9 3  1 9 3  2 9 3  3 9 3  4 9 3  5 9 3  6 9 3  7 9 3  8 9 3  9 9 3  10 9 3  11 9 3  12 9 3  13 9 3  14 9 3  15 9 3  16 9 3  17 9 3  18 9 3  19 9 3  20 9 3  0 10 3  1 10 3  2 10 3  3 10 3  4 10 3  5 10 3  6 10 3  7 10 3  8 10 3  9 10 3  10 10 3  11 10 3  12 10 3  13 10 3  14 10 3  15 10 3  16 10 3  17 10 3  18 10 3  19 10 3  20 10 3  0 11 3  1 11 3  2 11 3  3 11 3  4 11 3  5 11 3  6 11 3  7 11 3  8 11 3  9 11 3  10 11 3  11 11 3  12 11 3  13 11 3  14 11 3  15 11 3  16 11 3  17 11 3  18 11 3  19 11 3  20 11 3  0 12 3  1 12 3  2 12 3  3 12 3  4 12 3  5 12 3  6 12 3  7 12 3  8 12 3  9 12 3  10 12 3  11 12 3  12 12 3  13 12 3  14 12 3  15 12 3  16 12 3  17 12 3  18 12 3  19 12 3  20 12 3  0 0 4  1 0 4  2 0 4  3 0 4  4 0 4  5 0 4  6 0 4  7 0 4  8 0 4  9 0 4  10 0 4  11 0 4  12 0 4  13 0 4  14 0 4  15 0 4  16 0 4  17 0 4  18 0 4  19 0 4  20 0 4  0 1 4  1 1 4  2 1 4  3 1 4  4 1 4  5 1 4  6 1 4  7 1 4  8 1 4  9 1 4  10 1 4  11 1 4  12 1 4  13 1 4  14 1 4  15 1 4  16 1 4  17 1 4  18 1 4  19 1 4  20 1 4  0 2 4  1 2 4  2 2 4  3 2 4  4 2 4  5 2 4  6 2 4  7 2 4  8 2 4  9 2 4  10 2 4  11 2 4  12 2 4  13 2 4  14 2 4  15 2 4  16 2 4  17 2 4  18 2 4  19 2 4  20 2 4  0 3 4  1 3 4  2 3 4  3 3 4  4 3 4  5 3 4  6 3 4  7 3 4  8 3 4  9 3 4  10 3 4  11 3 4  12 3 4  13 3 4  14 3 4  15 3 4  16 3 4  17 3 4  18 3 4  19 3 4  20 3 4  0 4 4  1 4 4  2 4 4  3 4 4  4 4 4  5 4 4  6 4 4  7 4 4  8 4 4  9 4 4  10 4 4  11 4 4  12 4 4  13 4 4  14 4 4  15 4 4  16 4 4  17 4 4  18 4 4  19 4 4  20 4 4  0 5 4  1 5 4  2 5 4  3 5 4  4 5 4  5 5 4  6 5 4  7 5 4  8 5 4  9 5 4  10 5 4  11 5 4  12 5 4  13 5 4  14 5 4  15 5 4  16 5 4  17 5 4  18 5 4  19 5 4  20 5 4  0 6 4  1 6 4  2 6 4  3 6 4  4 6 4  5 6 4  6 6 4  7 6 4  8 6 4  9 6 4  10 6 4  11 6 4  12 6 4  13 6 4  14 6 4  15 6 4  16 6 4  17 6 4  18 6 4  19 6 4  20 6 4  0 7 4  1 7 4  2 7 4  3 7 4  4 7 4  5 7 4  6 7 4  7 7 4  8 7 4  9 7 4  10 7 4  11 7 4  12 7 4  13 7 4  14 7 4  15 7 4  16 7 4  17 7 4  18 7 4  19 7 4  20 7 4  0 8 4  1 8 4  2 8 4  3 8 4  4 8 4  5 8 4  6 8 4 
[...]
<PointData  Scalars="f_16"> 
<DataArray  type="Float64"  Name="f_16"  format="ascii">2.0392085489863426e+01  2.0392282064582805e+01  2.0392777233624429e+01  2.0393569358876313e+01  2.0394643086298569e+01  2.0395974005316987e+01  2.0397530580818245e+01  2.0399275354932769e+01  2.0401166006008378e+01  2.0403156428034304e+01  2.0405197868396023e+01  2.0407240120897129e+01  2.0409232754376763e+01  2.0411126347963457e+01  2.0412873696154772e+01  2.0414430935946584e+01  2.0415758524053388e+01  2.0416821921661690e+01  2.0417591606253552e+01  2.0418041172202525e+01  2.0418139155999903e+01  2.0392008629008600e+01  2.0392199132584711e+01  2.0392691181133845e+01  2.0393481314700875e+01  2.0394553348475814e+01  2.0395882605157521e+01  2.0397437485546870e+01  2.0399180536554873e+01  2.0401069465910698e+01  2.0403058206474785e+01  2.0405098048313310e+01  2.0407138829451231e+01  2.0409130163998043e+01  2.0411022678826303e+01  2.0412769223875355e+01  2.0414326014444665e+01  2.0415653653762853e+01  2.0416717965001745e+01  2.0417490520435891e+01  2.0417948650874532e+01  2.0418074320019841e+01  2.0391791831732267e+01  2.0391980548747924e+01  2.0392470062675685e+01  2.0393257492778581e+01  2.0394326572812307e+01  2.0395652561031060e+01  2.0397203868817353e+01  2.0398943101220336e+01  2.0400828049490102e+01  2.0402812743520560e+01  2.0404848577918862e+01  2.0406885499796704e+01  2.0408873236048024e+01  2.0410762531802462e+01  2.0412506367368838e+01  2.0414061117541241e+01  2.0415387613810715e+01  2.0416452061490453e+01  2.0417226712257317e+01  2.0417689858078951e+01  2.0417822673350198e+01  2.0391449149359090e+01  2.0391637077724418e+01  2.0392124320550991e+01  2.0392908511087764e+01  2.0393973567556344e+01  2.0395294849019031e+01  2.0396840870190296e+01  2.0398574358591084e+01  2.0400453245212677e+01  2.0402431712331751e+01  2.0404461315601850e+01  2.0406492168943945e+01  2.0408474170152772e+01  2.0410358239454247e+01  2.0412097539444304e+01  2.0413648641819389e+01  2.0414972601729737e+01  2.0416035882589025e+01  2.0416810982149013e+01  2.0417276145632137e+01  2.0417411268706132e+01  2.0391004205860050e+01  2.0391191438518096e+01  2.0391676312395692e+01  2.0392456752800406e+01  2.0393516900956868e+01  2.0394832294754330e+01  2.0396371618384517e+01  2.0398097775452705e+01  2.0399968884083908e+01  2.0401939324308866e+01  2.0403960857900820e+01  2.0405983810415300e+01  2.0407958293943608e+01  2.0409835443194844e+01  2.0411568633436278e+01  2.0413114644849372e+01  2.0414434730308468e+01  2.0415495517727500e+01  2.0416269569719891e+01  2.0416734942369615e+01  2.0416870875290048e+01  2.0390487711775066e+01  2.0390674089556459e+01  2.0391156343423283e+01  2.0391932574043640e+01  2.0392987135629415e+01  2.0394295774722671e+01  2.0395827381125336e+01  2.0397545068117036e+01  2.0399407171934708e+01  2.0401368300144533e+01  2.0403380449969237e+01  2.0405394187217240e+01  2.0407359864937213e+01  2.0409228854674229e+01  2.0410954758591107e+01  2.0412494565761641e+01  2.0413809706576508e+01  2.0414866930692583e+01  2.0415638824678766e+01  2.0416103317553141e+01  2.0416239373549402e+01  2.0389935288268024e+01  2.0390120585873351e+01  2.0390599947788758e+01  2.0391371617255341e+01  2.0392420158728761e+01  2.0393721537598406e+01  2.0395244861618721e+01  2.0396953465230432e+01  2.0398805913658958e+01  2.0400757052937784e+01  2.0402759126869803e+01  2.0404762952344999e+01  2.0406719132814899e+01  2.0408579283105048e+01  2.0410297233640648e+01  2.0411830176596435e+01  2.0413139706524273e+01  2.0414192679694587e+01  2.0414961710512550e+01  2.0415424667454754e+01  2.0415560410098603e+01  2.0389385085599386e+01  2.0389569059159587e+01  2.0390045284811759e+01  2.0390812182597518e+01  2.0391854543858908e+01  2.0393148551991477e+01  2.0394663523138959e+01  2.0396363001215256e+01  2.0398205769679503e+01  2.0400146903975184e+01  2.0402138886797875e+01  2.0404132779055676e+01  2.0406079427290823e+01  2.0407930681185572e+01  2.0409640589221137e+01  2.0411166534649773e+01  2.0412470263908205e+01  2.0413518732084341e+01  2.0414284587316654e+01  2.0414745668146072e+01  2.0414880782958107e+01  2.0388875292316381e+01  2.0389057651098181e+01  2.0389530495932732e+01  2.0390292545461445e+01  2.0391328849247103e+01  2.0392615787020748e+01  2.0394122845497886e+01  2.0395813740768801e+01  2.0397647442024649e+01  2.0399579225966303e+01  2.0401561788907539e+01  2.0403546412135121e+01  2.0405484162533405e+01  2.0407327102554586e+01  2.0409029477652716e+01  2.0410548843145296e+01  2.0411847082279618e+01  2.0412891239830447e+01  2.0413653993878135e+01  2.0414113145690948e+01  2.0414247421812835e+01  2.0388441772406409e+01  2.0388622015946144e+01  2.0389091108389465e+01  2.0389848325994894e+01  2.0390878978182073e+01  2.0392159561668940e+01  2.0393659652885066e+01  2.0395343075139863e+01  2.0397168931724568e+01  2.0399092656885770e+01  2.0401067120926502e+01  2.0403043787997898e+01  2.0404973909327300e+01  2.0406809726029451e+01  2.0408505649533886e+01  2.0410019381417801e+01  2.0411312923830277e+01  2.0412353402728638e+01  2.0413113520579383e+01  2.0413571007469756e+01  2.0413704371653964e+01  2.0388116226758623e+01  2.0388293057419020e+01  2.0388757631941132e+01  2.0389510102378203e+01  2.0390535823645610e+01  2.0391811196213485e+01  2.0393305749481915e+01  2.0394983327976828e+01  2.0396803107305079e+01  2.0398720627163236e+01  2.0400688883077450e+01  2.0402659474499767e+01  2.0404583790594248e+01  2.0406414207006147e+01  2.0408105261365023e+01  2.0409614769461598e+01  2.0410904833412086e+01  2.0411942661919895e+01  2.0412701005699788e+01  2.0413157521243487e+01  2.0413290207783813e+01  2.0387925766719839e+01  2.0388094974358847e+01  2.0388553597848190e+01  2.0389301672318869e+01  2.0390323645848650e+01  2.0391595417237635e+01  2.0393086311725053e+01  2.0394760120458802e+01  2.0396576038462140e+01  2.0398489660849695e+01  2.0400454056618365e+01  2.0402420907003641e+01  2.0404341685244301e+01  2.0406168849332857e+01  2.0407857015227556e+01  2.0409364073475015e+01  2.0410652203656575e+01  2.0411688713329326e+01  2.0412446509347166e+01  2.0412903444792295e+01  2.0413036970241567e+01  2.0387896372484082e+01  2.0388043222112607e+01  2.0388495137515452e+01  2.0389240423876011e+01  2.0390260636368915e+01  2.0391530935911199e+01  2.0393020449715877e+01  2.0394692919781729e+01  2.0396507539348761e+01  2.0398419919162425e+01  2.0400383150702577e+01  2.0402348939978779e+01  2.0404268784973222e+01  2.0406095167248871e+01  2.0407782725235780e+01  2.0409289373500719e+01  2.0410577327888799e+01  2.0411613985604237e+01  2.0412372566154950e+01  2.0412832209564822e+01  2.0412976147673810e+01  2.0392095672127230e+01  2.0392277134387996e+01  2.0392766940951574e+01  2.0393556664141208e+01  2.0394628982219963e+01  2.0395958899198146e+01  2.0397514688812546e+01  2.0399258824758746e+01  2.0401148960994828e+01  2.0403138985295158e+01  2.0405180147083016e+01  2.0407222246370907e+01  2.0409214861233881e+01  2.0411108584313300e+01  2.0412856232511977e+01  2.0414413985841822e+01  2.0415742395719665e+01  2.0416807162537935e+01  2.0417579452110811e+01  2.0418035012814780e+01  2.0418148990237349e+01  2.0392031942619131e+01  2.0392203316734800e+01  2.0392689960033046e+01  2.0393477916482755e+01  2.0394548725109580e+01  2.0395877138607052e+01  2.0397431387157024e+01  2.0399173957578995e+01  2.0401062534885096e+01  2.0403051044187098e+01  2.0405090774370144e+01  2.0407131565372989e+01  2.0409123035287305e+01  2.0411015817946282e+01  2.0412762776713112e+01  2.0414320155481917e+01  2.0415648624436717e+01  2.0416714186029370e+01  2.0417488987816739e+01  2.0417952585987464e+01  2.0418097000437243e+01  2.0391818674485172e+01  2.0391987710730170e+01  2.0392471734433592e+01  2.0393257021993389e+01  2.0394324927451947e+01  2.0395650123631839e+01  2.0397200851373640e+01  2.0398939656531343e+01  2.0400824307623306e+01  2.0402808826073489e+01  2.0404844604148142e+01  2.0406881589412510e+01  2.0408869511002855e+01  2.0410759118880936e+01  2.0412503403940313e+01  2.0414058765304549e+01  2.0415386094491083e+01  2.0416451766358300e+01  2.0417228610284020e+01  2.0417697262380166e+01  2.0417849594934196e+01  2.0391477337495061e+01  2.0391645569094734e+01  2.0392127316242686e+01  2.0392909380593323e+01  2.0393973286401533e+01  2.0395293802083536e+01  2.0396839270576628e+01  2.0398572359816011e+01  2.0400450977666825e+01  2.0402429297406592e+01  2.0404458871703479e+01  2.0406489814199841e+01  2.0408472024118915e+01  2.0410356425598021e+01  2.0412096190727546e+01  2.0413647914199554e+01  2.0414972709743331e+01  2.0416037210150648e+01  2.0416814498669964e+01  2.0417285202684528e+01  2.0417440018525639e+01  2.0391033040320920e+01  2.0391200661047282e+01  2.0391680065593725e+01  2.0392458398963210e+01  2.0393517415555056e+01  2.0394832063058676e+01  2.0396370853644687e+01  2.0398096631043593e+01  2.0399967489923416e+01  2.0401937800935652e+01  2.0403959322450671e+01  2.0405982379306245e+01  2.0407957084571954e+01  2.0409834576412859e+01  2.0411568239140109e+01  2.0413114875533079e+01  2.0414435796889499e+01  2.0415497801173732e+01  2.0416274039325877e+01  2.0416744955376295e+01  2.0416900584889369e+01  2.0390516814370621e+01  2.0390683694888914e+01  2.0391160517284057e+01  2.0391934662361066e+01  2.0392988109922634e+01  2.0394296018841207e+01  2.0395827107360127e+01  2.0397544428865633e+01  2.0399406295973304e+01  2.0401367306647767e+01  2.0403379454465789e+01  2.0405393304276483e+01  2.0407359209882898e+01  2.0409228546093910e+01  2.0410954923975240e+01  2.0412495355145460e+01  2.0413811328519667e+01  2.0414869764098164e+01  2.0415643836757628e+01  2.0416113859232382e+01  2.0416269562014431e+01  2.0389964356006640e+01  2.0390130286311109e+01  2.0390604259364988e+01  2.0391373865088301e+01  2.0392421308083847e+01  2.0393721969517586e+01  2.0395244786477178e+01  2.0396953033730128e+01  2.0398805252888607e+01  2.0400756280319126e+01  2.0402758356095582e+01  2.0404762296077124e+01  2.0406718704427728e+01  2.0408579199236907e+01  2.0410297619885995e+01  2.0411831181210044e+01  2.0413141536448499e+01  2.0414195712259588e+01  2.0414966910342709e+01  2.0415435376172521e+01  2.0415590700602820e+01  2.0389413830362166e+01  2.0389578579447726e+01  2.0390049461398085e+01  2.0390814315969941e+01  2.0391855591190115e+01  2.0393148890418740e+01  2.0394663360367886e+01  2.0396362485700834e+01  2.0398205026426652e+01  2.0400146048400803e+01  2.0402138030654655e+01  2.0404132033148294e+01  2.0406078903253462e+01  2.0407930494074854e+01  2.0409640863250505e+01  2.0411167416927942e+01  2.0412471960462035e+01  2.0413521619381839e+01  2.0414289628175080e+01  2.0414756196406774e+01  2.0414910832488058e+01  2.0388903410765959e+01  2.0389066707811825e+01  2.0389534256409508e+01  2.0390294280390442e+01  2.0391329505984618e+01  2.0392615738016133e+01  2.0394122295299592e+01  2.0395812835238313e+01  2.0397646303851083e+01  2.0399577968450906e+01  2.0401560521884889e+01  2.0403545244716110e+01  2.0405483204918731e+01  2.0407326468662518e+01  2.0409029290879708e+01  2.0410549250115082e+01  2.0411848288855076e+01  2.0412893622580121e+01  2.0413658515662153e+01  2.0414123138043376e+01  2.0414276898695963e+01  2.0388468892775556e+01  2.0388630279244683e+01  2.0389094123338495e+01  2.0389849326540030e+01  2.0390878901189506e+01  2.0392158774892824e+01  2.0393658357630454e+01  2.0395341414535860e+01  2.0397167026040584e+01  2.0399090617298551e+01  2.0401065055472674e+01  2.0403041804357823e+01  2.0404972116673378e+01  2.0406808237673172e+01  2.0408504588681353e+01  2.0410018894884868e+01  2.0411313218018389e+01  2.0412354855235062e+01  2.0413117096877674e+01  2.0413580047804547e+01  2.0413732916527938e+01  2.0388141778495903e+01  2.0388300008713482e+01  2.0388759357728880e+01  2.0389509805587739e+01  2.0390534436612146e+01  2.0391809084048539e+01  2.0393303110586462e+01  2.0394980302567689e+01  2.0396799813004698e+01  2.0398717172930322e+01  2.0400685375258718e+01  2.0402656019671991e+01  2.0404580497434154e+01  2.0406411188914628e+01  2.0408102642136196e+01  2.0409612696814758e+01  2.0410903514670895e+01  2.0411942475493156e+01  2.0412702920143193e+01  2.0413164900770973e+01  2.0413317236253679e+01  2.0387948788974754e+01  2.0388099266728965e+01  2.0388552510434735e+01  2.0389298494738075e+01  2.0390319335760115e+01  2.0391590342263399e+01  2.0393080666698307e+01  2.0394754040986701e+01  2.0396569638026264e+01  2.0398483045240436e+01  2.0400447330173499e+01  2.0402414175504859e+01  2.0404335057747353e+01  2.0406162440642138e+01  2.0407850951243599e+01  2.0409358504074635e+01  2.0410647336975394e+01  2.0411684924144453e+01  2.0412444753108353e+01  2.0412907079587004e+01  2.0413060494960629e+01  2.0387916669664897e+01  2.0388039297797828e+01  2.0388485007865739e+01  2.0389228001671778e+01  2.0390246963049105e+01  2.0391516378676542e+01  2.0393005189090200e+01  2.0394677076648026e+01  2.0396491215216709e+01  2.0398403211466075e+01  2.0400366159261683e+01  2.0402331769845201e+01  2.0404251547977836e+01  2.0406077983880394e+01  2.0407765728890318e+01  2.0409272721295633e+01  2.0410561230395093e+01  2.0411598801972360e+01  2.0412359167125558e+01  2.0412823564717478e+01  2.0412984863052522e+01  2.0392102463810637e+01  2.0392279126609395e+01  2.0392764726964497e+01  2.0393551631438907e+01  2.0394622097048892e+01  2.0395950752284019e+01  2.0397505646499184e+01  2.0399249131951187e+01  2.0401138800358289e+01  2.0403128510026068e+01  2.0405169499238667e+01  2.0407211568123838e+01  2.0409204304007176e+01  2.0411098320082427e+01  2.0412846472407740e+01  2.0414405013778520e+01  2.0415734629400994e+01  2.0416801258295706e+01  2.0417576449595636e+01  2.0418036322915707e+01  2.0418154905107951e+01  2.0392041871437286e+01  2.0392208016547226e+01  2.0392690373284445e+01  2.0393475537504056e+01  2.0394544535750430e+01  2.0395871730423007e+01  2.0397425127149084e+01  2.0399167092131965e+01  2.0401055248200510e+01  2.0403043490418757e+01  2.0405083095546939e+01  2.0407123902364745e+01  2.0409115536659559e+01  2.0411008650859866e+01  2.0412756144780339e+01  2.0414314330871409e+01  2.0415644005918910e+01  2.0416711399965976e+01  2.0417489040603328e+01  2.0417956945316874e+01  2.0418106484021099e+01  2.0391831150511610e+01  2.0391994807247062e+01  2.0392474488824565e+01  2.0393256992991844e+01  2.0394323118474766e+01  2.0395647132829154e+01  2.0397197048657628e+01  2.0398935290287508e+01  2.0400819563456096e+01  2.0402803858755213e+01  2.0404839555318929e+01  2.0406876598346798e+01  2.0408864723249987e+01  2.0410754696857754e+01  2.0412499544273125e+01  2.0414055730111738e+01  2.0415384268600405e+01  2.0416451759940145e+01  2.0417231425664351e+01  2.0417704426379899e+01  2.0417862096438697e+01  2.0391491442413390e+01  2.0391654274588433e+01  2.0392131672564791e+01  2.0392910966310289e+01  2.0393973115389088e+01  2.0395292477128063e+01  2.0396837163871623e+01  2.0398569721031624e+01  2.0400447993018460e+01  2.0402426121591965e+01  2.0404455645514265e+01  2.0406486675190219e+01  2.0408469115137279e+01  2.0410353905236899e+01  2.0412094250475679e+01  2.0413646809565282e+01  2.0414972817789145e+01  2.0416039134443505e+01  2.0416819243907661e+01  2.0417294321952781e+01  2.0417454541131374e+01  2.0391048123442420e+01  2.0391210364625820e+01  2.0391685438707050e+01  2.0392461021403033e+01  2.0393518302879787e+01  2.0394831819109001e+01  2.0396369851122806e+01  2.0398095119712458e+01  2.0399965655682745e+01  2.0401935797707985e+01  2.0403957289735082e+01  2.0405980452797241e+01  2.0407955404648533e+01  2.0409833298549355e+01  2.0411567551039759e+01  2.0413115028337145e+01  2.0414437163153050e+01  2.0415500981150512e+01  2.0416280038371259e+01  2.0416755333710761e+01  2.0416916377890917e+01  2.0390532398664128e+01  2.0390693932283803e+01  2.0391166453766143e+01  2.0391937872042778e+01  2.0392989605170055e+01  2.0394296401708466e+01  2.0395826749325224e+01  2.0397543578603642e+01  2.0399405138209584e+01  2.0401365993920766e+01  2.0403378124614072e+01  2.0405392091025494e+01  2.0407358251323522e+01  2.0409227995100967e+01  2.0410954965377282e+01  2.0412496237040806e+01  2.0413813420512078e+01  2.0414873664077493e+01  2.0415650548854369e+01  2.0416124943203915e+01  2.0416286052196835e+01  2.0389980045660753e+01  2.0390140667068799e+01  2.0390610372975232e+01  2.0391377276595247e+01  2.0392423023790140e+01  2.0393722587683083e+01  2.0395244675979296e+01  2.0396952441183878e+01  2.0398804361150933e+01  2.0400755240076947e+01  2.0402757303274104e+01  2.0404761362400819e+01  2.0406718025901817e+01  2.0408578926586276e+01  2.0410297935761744e+01  2.0411832331565535e+01  2.0413143888864028e+01  2.0414199862794959e+01  2.0414973861337796e+01  2.0415446685010856e+01  2.0415607400502147e+01  2.0389429255782357e+01  2.0389588737578197e+01  2.0390055387509747e+01  2.0390817563132959e+01  2.0391857157485088e+01  2.0393149368851919e+01  2.0394663116219220e+01  2.0396361762823737e+01  2.0398204005321976e+01  2.0400144877602663e+01  2.0402136844058152e+01  2.0404130960551324e+01  2.0406078078847010e+01  2.0407930066900338e+01  2.0409641014424075e+01  2.0411168391026791e+01  2.0412474123844273e+01  2.0413525566994288e+01  2.0414296361201892e+01  2.0414767270864228e+01  2.0414927282739455e+01  2.0388918189698458e+01  2.0389076265389999e+01  2.0389539616590639e+01  2.0390296980651133e+01  2.0391330534361629e+01  2.0392615681336945e+01  2.0394121514689218e+01  2.0395811571400170e+01  2.0397644734665384e+01  2.0399576240166951e+01  2.0401558766389197e+01  2.0403543590070850e+01  2.0405481783866520e+01  2.0407325429093170e+01  2.0409028813044486e+01  2.0410549577975374e+01  2.0411849788352360e+01  2.0412896888464449e+01  2.0413664549444970e+01  2.0414133497511102e+01  2.0414292623923057e+01  2.0388482592964120e+01  2.0388638809194184e+01  2.0389098485151141e+01  2.0389851038366178e+01  2.0390878940571604e+01  2.0392157722664340e+01  2.0393656570858791e+01  2.0395339130741295e+01  2.0397164420420207e+01  2.0399087833821504e+01  2.0401062224151527e+01  2.0403039051816830e+01  2.0404969574674734e+01  2.0406806053576560e+01  2.0408502942602748e+01  2.0410018030927965e+01  2.0411313502403672e+01  2.0412356883215224e+01  2.0413121871819595e+01  2.0413589134245289e+01  2.0413747369968952e+01  2.0388153890839988e+01  2.0388306993335860e+01  2.0388762178965806e+01  2.0389509966468434e+01  2.0390532909268412e+01  2.0391806445950547e+01  2.0393299715730848e+01  2.0394976385533507e+01  2.0396795546317193e+01  2.0398712698314593e+01  2.0400680821033287e+01  2.0402651511393039e+01  2.0404576166446475e+01  2.0406407182770433e+01  2.0408099141616024e+01  2.0409609946870525e+01  2.0410901882088865e+01  2.0411942555459575e+01  2.0412705716800581e+01  2.0413171988709973e+01  2.0413329706222619e+01  2.0387958808820137e+01  2.0388104102930054e+01  2.0388553109640721e+01  2.0389296385212788e+01  2.0390315501964004e+01  2.0391585364042324e+01  2.0393074896363682e+01  2.0394747710230497e+01  2.0396562916490719e+01  2.0398476072300827e+01  2.0400440232577449e+01  2.0402407078120909e+01  2.0404328092120981e+01  2.0406155755313364e+01  2.0407844728503484e+01  2.0409352990333694e+01  2.0410642899225675e+01  2.0411682154276622e+01  2.0412444646094173e+01  2.0412911202660077e+01  2.0413069986215902e+01  2.0387924615520493e+01  2.0388041781765061e+01  2.0388483069827529e+01  2.0389223280268524e+01  2.0390240474300992e+01  2.0391508707633275e+01  2.0392996686195893e+01  2.0394667970262493e+01  2.0396481671865700e+01  2.0398393368183143e+01  2.0400356141427597e+01  2.0402321701987539e+01  2.0404241562278735e+01  2.0406068230334096e+01  2.0407756391719950e+01  2.0409264048605579e+01  2.0410553588932281e+01  2.0411592776799072e+01  2.0412355726507752e+01  2.0412824198617070e+01  2.0412990607339811e+01  2.0392108383630454e+01  2.0392282183040521e+01  2.0392764221360633e+01  2.0393548334103969e+01  2.0394616845524272e+01  2.0395944153882972e+01  2.0397498105204946e+01  2.0399240922225342e+01  2.0401130124159188e+01  2.0403119532623197e+01  2.0405160370597123e