<?xml version="1.0"?>
<VTKFile type="UnstructuredGrid"  version="0.1"  >
<UnstructuredGrid>
<Piece  NumberOfPoints="1638" NumberOfCells="7200">
<Points>
<DataArray  type="Float64"  NumberOfComponents="3"  format="ascii">0 0 0  1 0 0  2 0 0  3 0 0  4 0 0  5 0 0  6 0 0  7 0 0  8 0 0  9 0 0  10 0 0  11 0 0  12 0 0  13 0 0  14 0 0  15 0 0  16 0 0  17 0 0  18 0 0  19 0 0  20 0 0  0 1 0  1 1 0  2 1 0  3 1 0  4 1 0  5 1 0  6 1 0  7 1 0  8 1 0  9 1 0  10 1 0  11 1 0  12 1 0  13 1 0  14 1 0  15 1 0  16 1 0  17 1 0  18 1 0  19 1 0  20 1 0  0 2 0  1 2 0  2 2 0  3 2 0  4 2 0  5 2 0  6 2 0  7 2 0  8 2 0  9 2 0  10 2 0  11 2 0  12 2 0  13 2 0  14 2 0  15 2 0  16 2 0  17 2 0  18 2 0  19 2 0  20 2 0  0 3 0  1 3 0  2 3 0  3 3 0  4 3 0  5 3 0  6 3 0  7 3 0  8 3 0  9 3 0  10 3 0  11 3 0  12 3 0  13 3 0  14 3 0  15 3 0  16 3 0  17 3 0  18 3 0  19 3 0  20 3 0  0 4 0  1 4 0  2 4 0  3 4 0  4 4 0  5 4 0  6 4 0  7 4 0  8 4 0  9 4 0  10 4 0  11 4 0  12 4 0  13 4 0  14 4 0  15 4 0  16 4 0  17 4 0  18 4 0  19 4 0  20 4 0  0 5 0  1 5 0  2 5 0  3 5 0  4 5 0  5 5 0  6 5 0  7 5 0  8 5 0  9 5 0  10 5 0  11 5 0  12 5 0  13 5 0  14 5 0  15 5 0  16 5 0  17 5 0  18 5 0  19 5 0  20 5 0  0 6 0  1 6 0  2 6 0  3 6 0  4 6 0  5 6 0  6 6 0  7 6 0  8 6 0  9 6 0  10 6 0  11 6 0  12 6 0  13 6 0  14 6 0  15 6 0  16 6 0  17 6 0  18 6 0  19 6 0  20 6 0  0 7 0  1 7 0  2 7 0  3 7 0  4 7 0  5 7 0  6 7 0  7 7 0  8 7 0  9 7 0  10 7 0  11 7 0  12 7 0  13 7 0  14 7 0  15 7 0  16 7 0  17 7 0  18 7 0  19 7 0  20 7 0  0 8 0  1 8 0  2 8 0  3 8 0  4 8 0  5 8 0  6 8 0  7 8 0  8 8 0  9 8 0  10 8 0  11 8 0  12 8 0  13 8 0  14 8 0  15 8 0  16 8 0  17 8 0  18 8 0  19 8 0  20 8 0  0 9 0  1 9 0  2 9 0  3 9 0  4 9 0  5 9 0  6 9 0  7 9 0  8 9 0  9 9 0  10 9 0  11 9 0  12 9 0  13 9 0  14 9 0  15 9 0  16 9 0  17 9 0  18 9 0  19 9 0  20 9 0  0 10 0  1 10 0  2 10 0  3 10 0  4 10 0  5 10 0  6 10 0  7 10 0  8 10 0  9 10 0  10 10 0  11 10 0  12 10 0  13 10 0  14 10 0  15 10 0  16 10 0  17 10 0  18 10 0  19 10 0  20 10 0  0 11 0  1 11 0  2 11 0  3 11 0  4 11 0  5 11 0  6 11 0  7 11 0  8 11 0  9 11 0  10 11 0  11 11 0  12 11 0  13 11 0  14 11 0  15 11 0  16 11 0  17 11 0  18 11 0  19 11 0  20 11 0  0 12 0  1 12 0  2 12 0  3 12 0  4 12 0  5 12 0  6 12 0  7 12 0  8 12 0  9 12 0  10 12 0  11 12 0  12 12 0  13 12 0  14 12 0  15 12 0  16 12 0  17 12 0  18 12 0  19 12 0  20 12 0  0 0 1  1 0 1  2 0 1  3 0 1  4 0 1  5 0 1  6 0 1  7 0 1  8 0 1  9 0 1  10 0 1  11 0 1  12 0 1  13 0 1  14 0 1  15 0 1  16 0 1  17 0 1  18 0 1  19 0 1  20 0 1  0 1 1  1 1 1  2 1 1  3 1 1  4 1 1  5 1 1  6 1 1  7 1 1  8 1 1  9 1 1  10 1 1  11 1 1  12 1 1  13 1 1  14 1 1  15 1 1  16 1 1  17 1 1  18 1 1  19 1 1  20 1 1  0 2 1  1 2 1  2 2 1  3 2 1  4 2 1  5 2 1  6 2 1  7 2 1  8 2 1  9 2 1  10 2 1  11 2 1  12 2 1  13 2 1  14 2 1  15 2 1  16 2 1  17 2 1  18 2 1  19 2 1  20 2 1  0 3 1  1 3 1  2 3 1  3 3 1  4 3 1  5 3 1  6 3 1  7 3 1  8 3 1  9 3 1  10 3 1  11 3 1  12 3 1  13 3 1  14 3 1  15 3 1  16 3 1  17 3 1  18 3 1  19 3 1  20 3 1  0 4 1  1 4 1  2 4 1  3 4 1  4 4 1  5 4 1  6 4 1  7 4 1  8 4 1  9 4 1  10 4 1  11 4 1  12 4 1  13 4 1  14 4 1  15 4 1  16 4 1  17 4 1  18 4 1  19 4 1  20 4 1  0 5 1  1 5 1  2 5 1  3 5 1  4 5 1  5 5 1  6 5 1  7 5 1  8 5 1  9 5 1  10 5 1  11 5 1  12 5 1  13 5 1  14 5 1  15 5 1  16 5 1  17 5 1  18 5 1  19 5 1  20 5 1  0 6 1  1 6 1  2 6 1  3 6 1  4 6 1  5 6 1  6 6 1  7 6 1  8 6 1  9 6 1  10 6 1  11 6 1  12 6 1  13 6 1  14 6 1  15 6 1  16 6 1  17 6 1  18 6 1  19 6 1  20 6 1  0 7 1  1 7 1  2 7 1  3 7 1  4 7 1  5 7 1  6 7 1  7 7 1  8 7 1  9 7 1  10 7 1  11 7 1  12 7 1  13 7 1  14 7 1  15 7 1  16 7 1  17 7 1  18 7 1  19 7 1  20 7 1  0 8 1  1 8 1  2 8 1  3 8 1  4 8 1  5 8 1  6 8 1  7 8 1  8 8 1  9 8 1  10 8 1  11 8 1  12 8 1  13 8 1  14 8 1  15 8 1  16 8 1  17 8 1  18 8 1  19 8 1  20 8 1  0 9 1  1 9 1  2 9 1  3 9 1  4 9 1  5 9 1  6 9 1  7 9 1  8 9 1  9 9 1  10 9 1  11 9 1  12 9 1  13 9 1  14 9 1  15 9 1  16 9 1  17 9 1  18 9 1  19 9 1  20 9 1  0 10 1  1 10 1  2 10 1  3 10 1  4 10 1  5 10 1  6 10 1  7 10 1  8 10 1  9 10 1  10 10 1  11 10 1  12 10 1  13 10 1  14 10 1  15 10 1  16 10 1  17 10 1  18 10 1  19 10 1  20 10 1  0 11 1  1 11 1  2 11 1  3 11 1  4 11 1  5 11 1  6 11 1  7 11 1  8 11 1  9 11 1  10 11 1  11 11 1  12 11 1  13 11 1  14 11 1  15 11 1  16 11 1  17 11 1  18 11 1  19 11 1  20 11 1  0 12 1  1 12 1  2 12 1  3 12 1  4 12 1  5 12 1  6 12 1  7 12 1  8 12 1  9 12 1  10 12 1  11 12 1  12 12 1  13 12 1  14 12 1  15 12 1  16 12 1  17 12 1  18 12 1  19 12 1  20 12 1  0 0 2  1 0 2  2 0 2  3 0 2  4 0 2  5 0 2  6 0 2  7 0 2  8 0 2  9 0 2  10 0 2  11 0 2  12 0 2  13 0 2  14 0 2  15 0 2  16 0 2  17 0 2  18 0 2  19 0 2  20 0 2  0 1 2  1 1 2  2 1 2  3 1 2  4 1 2  5 1 2  6 1 2  7 1 2  8 1 2  9 1 2  10 1 2  11 1 2  12 1 2  13 1 2  14 1 2  15 1 2  16 1 2  17 1 2  18 1 2  19 1 2  20 1 2  0 2 2  1 2 2  2 2 2  3 2 2  4 2 2  5 2 2  6 2 2  7 2 2  8 2 2  9 2 2  10 2 2  11 2 2  12 2 2  13 2 2  14 2 2  15 2 2  16 2 2  17 2 2  18 2 2  19 2 2  20 2 2  0 3 2  1 3 2  2 3 2  3 3 2  4 3 2  5 3 2  6 3 2  7 3 2  8 3 2  9 3 2  10 3 2  11 3 2  12 3 2  13 3 2  14 3 2  15 3 2  16 3 2  17 3 2  18 3 2  19 3 2  20 3 2  0 4 2  1 4 2  2 4 2  3 4 2  4 4 2  5 4 2  6 4 2  7 4 2  8 4 2  9 4 2  10 4 2  11 4 2  12 4 2  13 4 2  14 4 2  15 4 2  16 4 2  17 4 2  18 4 2  19 4 2  20 4 2  0 5 2  1 5 2  2 5 2  3 5 2  4 5 2  5 5 2  6 5 2  7 5 2  8 5 2  9 5 2  10 5 2  11 5 2  12 5 2  13 5 2  14 5 2  15 5 2  16 5 2  17 5 2  18 5 2  19 5 2  20 5 2  0 6 2  1 6 2  2 6 2  3 6 2  4 6 2  5 6 2  6 6 2  7 6 2  8 6 2  9 6 2  10 6 2  11 6 2  12 6 2  13 6 2  14 6 2  15 6 2  16 6 2  17 6 2  18 6 2  19 6 2  20 6 2  0 7 2  1 7 2  2 7 2  3 7 2  4 7 2  5 7 2  6 7 2  7 7 2  8 7 2  9 7 2  10 7 2  11 7 2  12 7 2  13 7 2  14 7 2  15 7 2  16 7 2  17 7 2  18 7 2  19 7 2  20 7 2  0 8 2  1 8 2  2 8 2  3 8 2  4 8 2  5 8 2  6 8 2  7 8 2  8 8 2  9 8 2  10 8 2  11 8 2  12 8 2  13 8 2  14 8 2  15 8 2  16 8 2  17 8 2  18 8 2  19 8 2  20 8 2  0 9 2  1 9 2  2 9 2  3 9 2  4 9 2  5 9 2  6 9 2  7 9 2  8 9 2  9 9 2  10 9 2  11 9 2  12 9 2  13 9 2  14 9 2  15 9 2  16 9 2  17 9 2  18 9 2  19 9 2  20 9 2  0 10 2  1 10 2  2 10 2  3 10 2  4 10 2  5 10 2  6 10 2  7 10 2  8 10 2  9 10 2  10 10 2  11 10 2  12 10 2  13 10 2  14 10 2  15 10 2  16 10 2  17 10 2  18 10 2  19 10 2  20 10 2  0 11 2  1 11 2  2 11 2  3 11 2  4 11 2  5 11 2  6 11 2  7 11 2  8 11 2  9 11 2  10 11 2  11 11 2  12 11 2  13 11 2  14 11 2  15 11 2  16 11 2  17 11 2  18 11 2  19 11 2  20 11 2  0 12 2  1 12 2  2 12 2  3 12 2  4 12 2  5 12 2  6 12 2  7 12 2  8 12 2  9 12 2  10 12 2  11 12 2  12 12 2  13 12 2  14 12 2  15 12 2  16 12 2  17 12 2  18 12 2  19 12 2  20 12 2  0 0 3  1 0 3  2 0 3  3 0 3  4 0 3  5 0 3  6 0 3  7 0 3  8 0 3  9 0 3  10 0 3  11 0 3  12 0 3  13 0 3  14 0 3  15 0 3  16 0 3  17 0 3  18 0 3  19 0 3  20 0 3  0 1 3  1 1 3  2 1 3  3 1 3  4 1 3  5 1 3  6 1 3  7 1 3  8 1 3  9 1 3  10 1 3  11 1 3  12 1 3  13 1 3  14 1 3  15 1 3  16 1 3  17 1 3  18 1 3  19 1 3  20 1 3  0 2 3  1 2 3  2 2 3  3 2 3  4 2 3  5 2 3  6 2 3  7 2 3  8 2 3  9 2 3  10 2 3  11 2 3  12 2 3  13 2 3  14 2 3  15 2 3  16 2 3  17 2 3  18 2 3  19 2 3  20 2 3  0 3 3  1 3 3  2 3 3  3 3 3  4 3 3  5 3 3  6 3 3  7 3 3  8 3 3  9 3 3  10 3 3  11 3 3  12 3 3  13 3 3  14 3 3  15 3 3  16 3 3  17 3 3  18 3 3  19 3 3  20 3 3  0 4 3  1 4 3  2 4 3  3 4 3  4 4 3  5 4 3  6 4 3  7 4 3  8 4 3  9 4 3  10 4 3  11 4 3  12 4 3  13 4 3  14 4 3  15 4 3  16 4 3  17 4 3  18 4 3  19 4 3  20 4 3  0 5 3  1 5 3  2 5 3  3 5 3  4 5 3  5 5 3  6 5 3  7 5 3  8 5 3  9 5 3  10 5 3  11 5 3  12 5 3  13 5 3  14 5 3  15 5 3  16 5 3  17 5 3  18 5 3  19 5 3  20 5 3  0 6 3  1 6 3  2 6 3  3 6 3  4 6 3  5 6 3  6 6 3  7 6 3  8 6 3  9 6 3  10 6 3  11 6 3  12 6 3  13 6 3  14 6 3  15 6 3  16 6 3  17 6 3  18 6 3  19 6 3  20 6 3  0 7 3  1 7 3  2 7 3  3 7 3  4 7 3  5 7 3  6 7 3  7 7 3  8 7 3  9 7 3  10 7 3  11 7 3  12 7 3  13 7 3  14 7 3  15 7 3  16 7 3  17 7 3  18 7 3  19 7 3  20 7 3  0 8 3  1 8 3  2 8 3  3 8 3  4 8 3  5 8 3  6 8 3  7 8 3  8 8 3  9 8 3  10 8 3  11 8 3  12 8 3  13 8 3  14 8 3  15 8 3  16 8 3  17 8 3  18 8 3  19 8 3  20 8 3  0 9 3  1 9 3  2 9 3  3 9 3  4 9 3  5 9 3  6 9 3  7 9 3  8 9 3  9 9 3  10 9 3  11 9 3  12 9 3  13 9 3  14 9 3  15 9 3  16 9 3  17 9 3  18 9 3  19 9 3  20 9 3  0 10 3  1 10 3  2 10 3  3 10 3  4 10 3  5 10 3  6 10 3  7 10 3  8 10 3  9 10 3  10 10 3  11 10 3  12 10 3  13 10 3  14 10 3  15 10 3  16 10 3  17 10 3  18 10 3  19 10 3  20 10 3  0 11 3  1 11 3  2 11 3  3 11 3  4 11 3  5 11 3  6 11 3  7 11 3  8 11 3  9 11 3  10 11 3  11 11 3  12 11 3  13 11 3  14 11 3  15 11 3  16 11 3  17 11 3  18 11 3  19 11 3  20 11 3  0 12 3  1 12 3  2 12 3  3 12 3  4 12 3  5 12 3  6 12 3  7 12 3  8 12 3  9 12 3  10 12 3  11 12 3  12 12 3  13 12 3  14 12 3  15 12 3  16 12 3  17 12 3  18 12 3  19 12 3  20 12 3  0 0 4  1 0 4  2 0 4  3 0 4  4 0 4  5 0 4  6 0 4  7 0 4  8 0 4  9 0 4  10 0 4  11 0 4  12 0 4  13 0 4  14 0 4  15 0 4  16 0 4  17 0 4  18 0 4  19 0 4  20 0 4  0 1 4  1 1 4  2 1 4  3 1 4  4 1 4  5 1 4  6 1 4  7 1 4  8 1 4  9 1 4  10 1 4  11 1 4  12 1 4  13 1 4  14 1 4  15 1 4  16 1 4  17 1 4  18 1 4  19 1 4  20 1 4  0 2 4  1 2 4  2 2 4  3 2 4  4 2 4  5 2 4  6 2 4  7 2 4  8 2 4  9 2 4  10 2 4  11 2 4  12 2 4  13 2 4  14 2 4  15 2 4  16 2 4  17 2 4  18 2 4  19 2 4  20 2 4  0 3 4  1 3 4  2 3 4  3 3 4  4 3 4  5 3 4  6 3 4  7 3 4  8 3 4  9 3 4  10 3 4  11 3 4  12 3 4  13 3 4  14 3 4  15 3 4  16 3 4  17 3 4  18 3 4  19 3 4  20 3 4  0 4 4  1 4 4  2 4 4  3 4 4  4 4 4  5 4 4  6 4 4  7 4 4  8 4 4  9 4 4  10 4 4  11 4 4  12 4 4  13 4 4  14 4 4  15 4 4  16 4 4  17 4 4  18 4 4  19 4 4  20 4 4  0 5 4  1 5 4  2 5 4  3 5 4  4 5 4  5 5 4  6 5 4  7 5 4  8 5 4  9 5 4  10 5 4  11 5 4  12 5 4  13 5 4  14 5 4  15 5 4  16 5 4  17 5 4  18 5 4  19 5 4  20 5 4  0 6 4  1 6 4  2 6 4  3 6 4  4 6 4  5 6 4  6 6 4  7 6 4  8 6 4  9 6 4  10 6 4  11 6 4  12 6 4  13 6 4  14 6 4  15 6 4  16 6 4  17 6 4  18 6 4  19 6 4  20 6 4  0 7 4  1 7 4  2 7 4  3 7 4  4 7 4  5 7 4  6 7 4  7 7 4  8 7 4  9 7 4  10 7 4  11 7 4  12 7 4  13 7 4  14 7 4  15 7 4  16 7 4  17 7 4  18 7 4  19 7 4  20 7 4  0 8 4  1 8 4  2 8 4  3 8 4  4 8 4  5 8 4  6 8 4 
[...]
<PointData  Scalars="f_16"> 
<DataArray  type="Float64"  Name="f_16"  format="ascii">2.0390836515479151e+01  2.0391248492020765e+01  2.0392360933245698e+01  2.0394165020423596e+01  2.0396627669637969e+01  2.0399698751169247e+01  2.0403313272187042e+01  2.0407392561083476e+01  2.0411845425923936e+01  2.0416569575768580e+01  2.0421453420521502e+01  2.0426378299738129e+01  2.0431221144146242e+01  2.0435857524875878e+01  2.0440164988070968e+01  2.0444026497607705e+01  2.0447333684992614e+01  2.0449989320800260e+01  2.0451907573093688e+01  2.0453007796083810e+01  2.0453188404478475e+01  2.0390219325465736e+01  2.0390641077290816e+01  2.0391750049206227e+01  2.0393544706092221e+01  2.0395993830355209e+01  2.0399048037631498e+01  2.0402642860160821e+01  2.0406700136195280e+01  2.0411129220054267e+01  2.0415828415502229e+01  2.0420686774493372e+01  2.0425586319283362e+01  2.0430404695541689e+01  2.0435018216381618e+01  2.0439305205634515e+01  2.0443149492058637e+01  2.0446443844479980e+01  2.0449093078263449e+01  2.0451016567325862e+01  2.0452150299169588e+01  2.0452450669506330e+01  2.0388665271402257e+01  2.0389089251762336e+01  2.0390187469549158e+01  2.0391959921853232e+01  2.0394376913443406e+01  2.0397390331978841e+01  2.0400936904313003e+01  2.0404939706882097e+01  2.0409309432374254e+01  2.0413945842373728e+01  2.0418739564565783e+01  2.0423574301157764e+01  2.0428329462365376e+01  2.0432883192684336e+01  2.0437115712258919e+01  2.0440912853696723e+01  2.0444169644290845e+01  2.0446793773790407e+01  2.0448708753328415e+01  2.0449855986114944e+01  2.0450190098439688e+01  2.0386252897816846e+01  2.0386673052269927e+01  2.0387751594233137e+01  2.0389488711260022e+01  2.0391855779824578e+01  2.0394806099810342e+01  2.0398278017677267e+01  2.0402196425404185e+01  2.0406474035319452e+01  2.0411012832527753e+01  2.0415705857994642e+01  2.0420439389730767e+01  2.0425095539224941e+01  2.0429555236420335e+01  2.0433701533947307e+01  2.0437423121614088e+01  2.0440617906302268e+01  2.0443196459679850e+01  2.0445084920021866e+01  2.0446225779668424e+01  2.0446569144298497e+01  2.0383137634430671e+01  2.0383549588590601e+01  2.0384600636682535e+01  2.0386291010500837e+01  2.0388593085805724e+01  2.0391461699752195e+01  2.0394837115448990e+01  2.0398646464909799e+01  2.0402805001661296e+01  2.0407217533822003e+01  2.0411780178019384e+01  2.0416382497477496e+01  2.0420910041565829e+01  2.0425247262482014e+01  2.0429280742602554e+01  2.0432902622884875e+01  2.0436014073365524e+01  2.0438528557664640e+01  2.0440374354873242e+01  2.0441494598179244e+01  2.0441837705296795e+01  2.0379528816009820e+01  2.0379929280875803e+01  2.0380946897002399e+01  2.0382582001880014e+01  2.0384808048948042e+01  2.0387581537339734e+01  2.0390844842508489e+01  2.0394527605668877e+01  2.0398547957700440e+01  2.0402813923506816e+01  2.0407225135524964e+01  2.0411674914948044e+01  2.0416052736929597e+01  2.0420247056268327e+01  2.0424148427965676e+01  2.0427652811008905e+01  2.0430664886678237e+01  2.0433101121166452e+01  2.0434892012125378e+01  2.0435981838662691e+01  2.0436319264730518e+01  2.0375671739021012e+01  2.0376058326933734e+01  2.0377038764617676e+01  2.0378613603883714e+01  2.0380757479009400e+01  2.0383428626685998e+01  2.0386571610814613e+01  2.0390118681263502e+01  2.0393990978555159e+01  2.0398099909252984e+01  2.0402348813064776e+01  2.0406634977679932e+01  2.0410852017404771e+01  2.0414892593192462e+01  2.0418651410166678e+01  2.0422028382440736e+01  2.0424931797032432e+01  2.0427281208373245e+01  2.0429009520392661e+01  2.0430062663721721e+01  2.0430390557560113e+01  2.0371829883944411e+01  2.0372201049089057e+01  2.0373142841298222e+01  2.0374656227612874e+01  2.0376717115204382e+01  2.0379285459712623e+01  2.0382307939127951e+01  2.0385719323776769e+01  2.0389443681103746e+01  2.0393395726545652e+01  2.0397482441556082e+01  2.0401605016588604e+01  2.0405661136769591e+01  2.0409547589910094e+01  2.0413163136241838e+01  2.0416411535202421e+01  2.0419204570468242e+01  2.0421464821176908e+01  2.0423127666433455e+01  2.0424140994715430e+01  2.0424456510079704e+01  2.0368266918783736e+01  2.0368621778546917e+01  2.0369525555986918e+01  2.0370980057433147e+01  2.0372962517044325e+01  2.0375434436357118e+01  2.0378344343623620e+01  2.0381629239664317e+01  2.0385215821976132e+01  2.0389021811996564e+01  2.0392957520454885e+01  2.0396927715518480e+01  2.0400833814361643e+01  2.0404576379886112e+01  2.0408057865599151e+01  2.0411185511545362e+01  2.0413874247702807e+01  2.0416049381289259e+01  2.0417648602159236e+01  2.0418621840628649e+01  2.0418922957494726e+01  2.0365229561052502e+01  2.0365567237967152e+01  2.0366435142177945e+01  2.0367836732808914e+01  2.0369750427717086e+01  2.0372138816821554e+01  2.0374951776460751e+01  2.0378128046530225e+01  2.0381596464350601e+01  2.0385277251662991e+01  2.0389083517845449e+01  2.0392923051615764e+01  2.0396700422523033e+01  2.0400319373625337e+01  2.0403685449632952e+01  2.0406708768745823e+01  2.0409306809277464e+01  2.0411407024384967e+01  2.0412948904426635e+01  2.0413884184761375e+01  2.0414169343835074e+01  2.0362933397551004e+01  2.0363250758987348e+01  2.0364085303450299e+01  2.0365442924913975e+01  2.0367302214084745e+01  2.0369625858797502e+01  2.0372364318858963e+01  2.0375457423777618e+01  2.0378835520145312e+01  2.0382420670889353e+01  2.0386128081003626e+01  2.0389867814858487e+01  2.0393546818805529e+01  2.0397071225189602e+01  2.0400348878449190e+01  2.0403291988918561e+01  2.0405819785660594e+01  2.0407860998887177e+01  2.0409355889018080e+01  2.0410256924192524e+01  2.0410523498522590e+01  2.0361556326471039e+01  2.0361839962772020e+01  2.0362642920239267e+01  2.0363968756785148e+01  2.0365792523230805e+01  2.0368075338469577e+01  2.0370767383452268e+01  2.0373808912719095e+01  2.0377131105470788e+01  2.0380657119557767e+01  2.0384303434767467e+01  2.0387981509811183e+01  2.0391599748601301e+01  2.0395065742768690e+01  2.0398288723770044e+01  2.0401182118262142e+01  2.0403666049972468e+01  2.0405669549945063e+01  2.0407132055209633e+01  2.0408003328134086e+01  2.0408240716194776e+01  2.0361253469972439e+01  2.0361450618433860e+01  2.0362228337323209e+01  2.0363541038211444e+01  2.0365353238094965e+01  2.0367623601291992e+01  2.0370301768477617e+01  2.0373328001791926e+01  2.0376633693248301e+01  2.0380142315969657e+01  2.0383770726896579e+01  2.0387430800364005e+01  2.0391031375006687e+01  2.0394480476096430e+01  2.0397687743165623e+01  2.0400566949168578e+01  2.0403038427571403e+01  2.0405031049594207e+01  2.0406482699052571e+01  2.0407334462959447e+01  2.0407489819958403e+01  2.0390820778483100e+01  2.0391181829677475e+01  2.0392279089510918e+01  2.0394076241041766e+01  2.0396533994942413e+01  2.0399600687316092e+01  2.0403210916324479e+01  2.0407285920615031e+01  2.0411734533715745e+01  2.0416454543281997e+01  2.0421334466601248e+01  2.0426255767337310e+01  2.0431095510844152e+01  2.0435729412504784e+01  2.0440035180077754e+01  2.0443895982921475e+01  2.0447203775911905e+01  2.0449861973146334e+01  2.0451786218945593e+01  2.0452898906302217e+01  2.0453097956608595e+01  2.0390259560329270e+01  2.0390637678054361e+01  2.0391733691686586e+01  2.0393522854766758e+01  2.0395968611983896e+01  2.0399020220151122e+01  2.0402612818744114e+01  2.0406668127693738e+01  2.0411095480376016e+01  2.0415793202350397e+01  2.0420650388472197e+01  2.0425549114327715e+01  2.0430367083849269e+01  2.0434980672135286e+01  2.0439268273679666e+01  2.0443113814096023e+01  2.0446410235933250e+01  2.0449062767233137e+01  2.0450992055513023e+01  2.0452139089858978e+01  2.0452484552463726e+01  2.0388724801707664e+01  2.0389105517420912e+01  2.0390191411842064e+01  2.0391958922998437e+01  2.0394373121252546e+01  2.0397384585740554e+01  2.0400929660541856e+01  2.0404931296641891e+01  2.0409300150994380e+01  2.0413935987939752e+01  2.0418729456141229e+01  2.0423564287007103e+01  2.0428319923046313e+01  2.0432874542965280e+01  2.0437108407430060e+01  2.0440907411893587e+01  2.0444166718171221e+01  2.0446794395858952e+01  2.0448715302184045e+01  2.0449876501395646e+01  2.0450259085905881e+01  2.0386320614352879e+01  2.0386698040476244e+01  2.0387764651892333e+01  2.0389497179027014e+01  2.0391861810483988e+01  2.0394810557534537e+01  2.0398281388608819e+01  2.0402199067095406e+01  2.0406476262218206e+01  2.0411014951961040e+01  2.0415708186762934e+01  2.0420442261234811e+01  2.0425099305833108e+01  2.0429560270925474e+01  2.0433708235597230e+01  2.0437431938437189e+01  2.0440629408153839e+01  2.0443211590981651e+01  2.0445105991739300e+01  2.0446260818522667e+01  2.0446652350621950e+01  2.0383209048072381e+01  2.0383579338090314e+01  2.0384618896351917e+01  2.0386304996859533e+01  2.0388604930448871e+01  2.0391472269809618e+01  2.0394846904942369e+01  2.0398655837579600e+01  2.0402814273278306e+01  2.0407227006335066e+01  2.0411790155038730e+01  2.0416393290788847e+01  2.0420921973282951e+01  2.0425260666632866e+01  2.0429295971610639e+01  2.0432920070692724e+01  2.0436034249612892e+01  2.0438552340596324e+01  2.0440403971124841e+01  2.0441537875575012e+01  2.0441927965702444e+01  2.0379601241008437e+01  2.0379961447226869e+01  2.0380968077565282e+01  2.0382599217990094e+01  2.0384823384868042e+01  2.0387595845992806e+01  2.0390858610814451e+01  2.0394541189967487e+01  2.0398561663126983e+01  2.0402828036653542e+01  2.0407239939155581e+01  2.0411690694235507e+01  2.0416069781727401e+01  2.0420265663143930e+01  2.0424168907372987e+01  2.0427675511143939e+01  2.0430690267649776e+01  2.0433130003540228e+01  2.0434926530689371e+01  2.0436029564662299e+01  2.0436412463749317e+01  2.0375743052751442e+01  2.0376090970684022e+01  2.0377060958667741e+01  2.0378632126575866e+01  2.0380774345185191e+01  2.0383444659891147e+01  2.0386587278141121e+01  2.0390134320496340e+01  2.0394006874636947e+01  2.0398116325700968e+01  2.0402366006203533e+01  2.0406653202887295e+01  2.0410871531760016e+01  2.0414913658155555e+01  2.0418674299512830e+01  2.0422053406636330e+01  2.0424959376564210e+01  2.0427312115816687e+01  2.0429045803689878e+01  2.0430111628961566e+01  2.0430483366357507e+01  2.0371898166760435e+01  2.0372232325089527e+01  2.0373164203814678e+01  2.0374674180510731e+01  2.0376733585672966e+01  2.0379301228485875e+01  2.0382323442327589e+01  2.0385734871164146e+01  2.0389459529648278e+01  2.0393412110817227e+01  2.0397499587746179e+01  2.0401623149021798e+01  2.0405680481141840e+01  2.0409568376756777e+01  2.0413185609672993e+01  2.0416435977678937e+01  2.0419231374943074e+01  2.0421494726145539e+01  2.0423162648638083e+01  2.0424188116023899e+01  2.0424545874156184e+01  2.0368330246200422e+01  2.0368649787392727e+01  2.0369544165438079e+01  2.0370995470423800e+01  2.0372976557204076e+01  2.0375447830026552e+01  2.0378357486471756e+01  2.0381642405548675e+01  2.0385229233724338e+01  2.0389035671056586e+01  2.0392972020998990e+01  2.0396943051468494e+01  2.0400850183395622e+01  2.0404593987800389e+01  2.0408076935890932e+01  2.0411206310631957e+01  2.0413897156076825e+01  2.0416075122441857e+01  2.0417679108271507e+01  2.0418663978321678e+01  2.0419005911330160e+01  2.0365285587136757e+01  2.0365589719834485e+01  2.0366448702802778e+01  2.0367847236625295e+01  2.0369759580857927e+01  2.0372147282109768e+01  2.0374959901100670e+01  2.0378136061532587e+01  2.0381604553096544e+01  2.0385285579349883e+01  2.0389092246079116e+01  2.0392932346217304e+01  2.0396710458444826e+01  2.0400330340241076e+01  2.0403697561150562e+01  2.0406722289967309e+01  2.0409322126473008e+01  2.0411424870936553e+01  2.0412971209415598e+01  2.0413917710543881e+01  2.0414242612286383e+01  2.0362978040394836e+01  2.0363263941745011e+01  2.0364089943326348e+01  2.0365444504618011e+01  2.0367302321131881e+01  2.0369625086985369e+01  2.0372362957267999e+01  2.0375455650479672e+01  2.0378833470874980e+01  2.0382418469563024e+01  2.0386125855510553e+01  2.0389865706016860e+01  2.0393544986291303e+01  2.0397069853611466e+01  2.0400348188216888e+01  2.0403292262052634e+01  2.0405821436481368e+01  2.0407864800635473e+01  2.0409363829466770e+01  2.0410275851474278e+01  2.0410581831808948e+01  2.0361579405731256e+01  2.0361833572751348e+01  2.0362627775948610e+01  2.0363950145973970e+01  2.0365771977972628e+01  2.0368053374048070e+01  2.0370744199279681e+01  2.0373784600247756e+01  2.0377105724375657e+01  2.0380630732475201e+01  2.0384276125861103e+01  2.0387953395666731e+01  2.0391570985339165e+01  2.0395036532377677e+01  2.0398259323912999e+01  2.0401152864939217e+01  2.0403637421949639e+01  2.0405642389105921e+01  2.0407108459445510e+01  2.0407990649253378e+01  2.0408269581148797e+01  2.0361225528285580e+01  2.0361383954441646e+01  2.0362149712198903e+01  2.0363457210223565e+01  2.0365265883892352e+01  2.0367533049401061e+01  2.0370207965912726e+01  2.0373230797510679e+01  2.0376532940799969e+01  2.0380037920798660e+01  2.0383662672480899e+01  2.0387319163859114e+01  2.0390916336497355e+01  2.0394362323833803e+01  2.0397566877453855e+01  2.0400443890205768e+01  2.0402913844055472e+01  2.0404905887918385e+01  2.0406358901677116e+01  2.0407219717534602e+01  2.0407432941879737e+01  2.0390811520765823e+01  2.0391159442115722e+01  2.0392245746666276e+01  2.0394035506338515e+01  2.0396488046957739e+01  2.0399550711668834e+01  2.0403157566847042e+01  2.0407229597726285e+01  2.0411675539676708e+01  2.0416393169225181e+01  2.0421271042632863e+01  2.0426190693188474e+01  2.0431029278307264e+01  2.0435662629444792e+01  2.0439968608044815e+01  2.0443830606200265e+01  2.0447140928036141e+01  2.0449803545274783e+01  2.0451734893069553e+01  2.0452857897124481e+01  2.0453068256266995e+01  2.0390267469324186e+01  2.0390633226113472e+01  2.0391718862455718e+01  2.0393501085208737e+01  2.0395942095111810e+01  2.0398990206460791e+01  2.0402580036249667e+01  2.0406633044830546e+01  2.0411058454716425e+01  2.0415754564084011e+01  2.0420610488084492e+01  2.0425508351344444e+01  2.0430325927586754e+01  2.0434939683897621e+01  2.0439228141765909e+01  2.0443075418271604e+01  2.0446374766586953e+01  2.0449031931861835e+01  2.0450968378181535e+01  2.0452126023850337e+01  2.0452483922647257e+01  2.0388748054045397e+01  2.0389116739085448e+01  2.0390192730256405e+01  2.0391953765009458e+01  2.0394363698773908e+01  2.0397372197538758e+01  2.0400915092336909e+01  2.0404915071068757e+01  2.0409282669263856e+01  2.0413917609236510e+01  2.0418710542630844e+01  2.0423545230625230e+01  2.0428301164659540e+01  2.0432856593060681e+01  2.0437091879403795e+01  2.0440893084657628e+01  2.0444155655781717e+01  2.0446788169380216e+01  2.0448716360855627e+01  2.0449888476038545e+01  2.0450284246489073e+01  2.0386354149246369e+01  2.0386719819738108e+01  2.0387776921831602e+01  2.0389503378397389e+01  2.0391864160531302e+01  2.0394810379854441e+01  2.0398279498534620e+01  2.0402196015670693e+01  2.0406472472291458e+01  2.0411010794020605e+01  2.0415704021624876e+01  2.0420438465266088e+01  2.0425096289016835e+01  2.0429558496751454e+01  2.0433708253806088e+01  2.0437434447752693e+01  2.0440635378644021e+01  2.0443222496945506e+01  2.0445124212182876e+01  2.0446289981861490e+01  2.0446694747030993e+01  2.0383248766163490e+01  2.0383607652189479e+01  2.0384638102354991e+01  2.0386318510165204e+01  2.0388614957276889e+01  2.0391480130585798e+01  2.0394853421256819e+01  2.0398661567628714e+01  2.0402819643259264e+01  2.0407232383200355e+01  2.0411795887234970e+01  2.0416399732290767e+01  2.0420929500990987e+01  2.0425269699970627e+01  2.0429307005298387e+01  2.0432933737971613e+01  2.0436051446079212e+01  2.0438574460295364e+01  2.0440433310883140e+01  2.0441577977307574e+01  2.0441981049059830e+01  2.0379643960960060e+01  2.0379993184955556e+01  2.0380991131218895e+01  2.0382616939585578e+01  2.0384837938613245e+01  2.0387608529365831e+01  2.0390870232407977e+01  2.0394552298096034e+01  2.0398572672770698e+01  2.0402839299453412e+01  2.0407251782529126e+01  2.0411703444554139e+01  2.0416083781379900e+01  2.0420281290141340e+01  2.0424186608304051e+01  2.0427695864542908e+01  2.0430714107500368e+01  2.0433158653346062e+01  2.0434962201232594e+01  2.0436075686580573e+01  2.0436471186090724e+01  2.0375786095891339e+01  2.0376123493713674e+01  2.0377085229880748e+01  2.0378651401742520e+01  2.0380790722206818e+01  2.0383459394088732e+01  2.0386601148813842e+01  2.0390147852042201e+01  2.0394020459053088e+01  2.0398130290052418e+01  2.0402380650414475e+01  2.0406668822366594e+01  2.0410888434403713e+01  2.0414932184151255e+01  2.0418694854482009e+01  2.0422076524731168e+01  2.0424985842369477e+01  2.0427343193745575e+01  2.0429083625610332e+01  2.0430159517575706e+01  2.0430543420034557e+01  2.0371939038157553e+01  2.0372263152370842e+01  2.0373187198174161e+01  2.0374692474185306e+01  2.0376749189158534e+01  2.0379315338255168e+01  2.0382336794496680e+01  2.0385747954509750e+01  2.0389472703647602e+01  2.0393425670829103e+01  2.0397513801791199e+01  2.0401638280158267e+01  2.0405696804656930e+01  2.0409586200333756e+01  2.0413205306750932e+01  2.0416458050095834e+01  2.0419256572727235e+01  2.0421524271378150e+01  2.0423198612221174e+01  2.0424233732834889e+01  2.0424603217188391e+01  2.0368366366236145e+01  2.0368676337603944e+01  2.0369563266472568e+01  2.0371010104036490e+01  2.0372988627698579e+01  2.0375458460883507e+01  2.0378367358992978e+01  2.0381651963148066e+01  2.0385238795629245e+01  2.0389045495573853e+01  2.0392982341680582e+01  2.0396954099572479e+01  2.0400862205513654e+01  2.0404607266553000e+01  2.0408091823621945e+01  2.0411223291746808e+01  2.0413916965061958e+01  2.0416098962961470e+01  2.0417709020350500e+01  2.0418703145382395e+01  2.0419056410530640e+01  2.0365313983850672e+01  2.0365609016092780e+01  2.0366460869692407e+01  2.0367855075019275e+01  2.0369764874097807e+01  2.0372151070443625e+01  2.0374962801857947e+01  2.0378138464539749e+01  2.0381606730759227e+01  2.0385287748763979e+01  2.0389094605175405e+01  2.0392935096713302e+01  2.0396713824150794e+01  2.0400334588413699e+01  2.0403703036649965e+01  2.0406729477671536e+01  2.0409331768717781e+01  2.0411438184843593e+01  2.0412990249965645e+01  2.0413945672057459e+01  2.0414281618944763e+01  2.0362995010022942e+01  2.0363272242133128e+01  2.0364091293127945e+01  2.0365441509631388e+01  2.0367296646427523e+01  2.0369617687844208e+01  2.0372354380702596e+01  2.0375446224953777e+01  2.0378823415269089e+01  2.0382407955692774e+01  2.0386115045167568e+01  2.0389854774908326e+01  2.0393534143224475e+01  2.0397059362484708e+01  2.0400338402508225e+01  2.0403283687386303e+01  2.0405814848768816e+01  2.0407861466990841e+01  2.0409365882651070e+01  2.0410286610435190e+01  2.0410603575279108e+01  2.0361580791442279e+01  2.0361826332739646e+01  2.0362613388368079e+01  2.0363931138637206e+01  2.0365749954042755e+01  2.0368029217455319e+01  2.0370718382733365e+01  2.0373757382017558e+01  2.0377077261723876e+01  2.0380601147063778e+01  2.0384245542847822e+01  2.0387921969140422e+01  2.0391538918463198e+01  2.0395004099708011e+01  2.0398226905451800e+01  2.0401121007536148e+01  2.0403606956647693e+01  2.0405614657732581e+01  2.0407085725125942e+01  2.0407976535963570e+01  2.0408266900593979e+01  2.0361211771926392e+01  2.0361359628200734e+01  2.0362117359634205e+01  2.0363419722780911e+01  2.0365224919468066e+01  2.0367489447472863e+01  2.0370162129734698e+01  2.0373182915661971e+01  2.0376483109812483e+01  2.0379986214826641e+01  2.0383609184858340e+01  2.0387264034061552e+01  2.0390859771029689e+01  2.0394304618371152e+01  2.0397508449409532e+01  2.0400385336524355e+01  2.0402856051401951e+01  2.0404850249220967e+01  2.0406307742971951e+01  2.0407176973989525e+01  2.0407402705431949e+01  2.0390804006584020e+01  2.0391145090917352e+01  2.0392222540560791e+01  2.0394005200794162e+01  2.0396452480147335e+01  2.0399511138063431e+01  2.0403114766157678e+01  2.0407184073164395e+01  2.0411627665813143e+01  2.0416343285311747e+01  2.0421219509175085e