<?xml version="1.0"?>
<VTKFile type="UnstructuredGrid"  version="0.1"  >
<UnstructuredGrid>
<Piece  NumberOfPoints="1638" NumberOfCells="7200">
<Points>
<DataArray  type="Float64"  NumberOfComponents="3"  format="ascii">0 0 0  1 0 0  2 0 0  3 0 0  4 0 0  5 0 0  6 0 0  7 0 0  8 0 0  9 0 0  10 0 0  11 0 0  12 0 0  13 0 0  14 0 0  15 0 0  16 0 0  17 0 0  18 0 0  19 0 0  20 0 0  0 1 0  1 1 0  2 1 0  3 1 0  4 1 0  5 1 0  6 1 0  7 1 0  8 1 0  9 1 0  10 1 0  11 1 0  12 1 0  13 1 0  14 1 0  15 1 0  16 1 0  17 1 0  18 1 0  19 1 0  20 1 0  0 2 0  1 2 0  2 2 0  3 2 0  4 2 0  5 2 0  6 2 0  7 2 0  8 2 0  9 2 0  10 2 0  11 2 0  12 2 0  13 2 0  14 2 0  15 2 0  16 2 0  17 2 0  18 2 0  19 2 0  20 2 0  0 3 0  1 3 0  2 3 0  3 3 0  4 3 0  5 3 0  6 3 0  7 3 0  8 3 0  9 3 0  10 3 0  11 3 0  12 3 0  13 3 0  14 3 0  15 3 0  16 3 0  17 3 0  18 3 0  19 3 0  20 3 0  0 4 0  1 4 0  2 4 0  3 4 0  4 4 0  5 4 0  6 4 0  7 4 0  8 4 0  9 4 0  10 4 0  11 4 0  12 4 0  13 4 0  14 4 0  15 4 0  16 4 0  17 4 0  18 4 0  19 4 0  20 4 0  0 5 0  1 5 0  2 5 0  3 5 0  4 5 0  5 5 0  6 5 0  7 5 0  8 5 0  9 5 0  10 5 0  11 5 0  12 5 0  13 5 0  14 5 0  15 5 0  16 5 0  17 5 0  18 5 0  19 5 0  20 5 0  0 6 0  1 6 0  2 6 0  3 6 0  4 6 0  5 6 0  6 6 0  7 6 0  8 6 0  9 6 0  10 6 0  11 6 0  12 6 0  13 6 0  14 6 0  15 6 0  16 6 0  17 6 0  18 6 0  19 6 0  20 6 0  0 7 0  1 7 0  2 7 0  3 7 0  4 7 0  5 7 0  6 7 0  7 7 0  8 7 0  9 7 0  10 7 0  11 7 0  12 7 0  13 7 0  14 7 0  15 7 0  16 7 0  17 7 0  18 7 0  19 7 0  20 7 0  0 8 0  1 8 0  2 8 0  3 8 0  4 8 0  5 8 0  6 8 0  7 8 0  8 8 0  9 8 0  10 8 0  11 8 0  12 8 0  13 8 0  14 8 0  15 8 0  16 8 0  17 8 0  18 8 0  19 8 0  20 8 0  0 9 0  1 9 0  2 9 0  3 9 0  4 9 0  5 9 0  6 9 0  7 9 0  8 9 0  9 9 0  10 9 0  11 9 0  12 9 0  13 9 0  14 9 0  15 9 0  16 9 0  17 9 0  18 9 0  19 9 0  20 9 0  0 10 0  1 10 0  2 10 0  3 10 0  4 10 0  5 10 0  6 10 0  7 10 0  8 10 0  9 10 0  10 10 0  11 10 0  12 10 0  13 10 0  14 10 0  15 10 0  16 10 0  17 10 0  18 10 0  19 10 0  20 10 0  0 11 0  1 11 0  2 11 0  3 11 0  4 11 0  5 11 0  6 11 0  7 11 0  8 11 0  9 11 0  10 11 0  11 11 0  12 11 0  13 11 0  14 11 0  15 11 0  16 11 0  17 11 0  18 11 0  19 11 0  20 11 0  0 12 0  1 12 0  2 12 0  3 12 0  4 12 0  5 12 0  6 12 0  7 12 0  8 12 0  9 12 0  10 12 0  11 12 0  12 12 0  13 12 0  14 12 0  15 12 0  16 12 0  17 12 0  18 12 0  19 12 0  20 12 0  0 0 1  1 0 1  2 0 1  3 0 1  4 0 1  5 0 1  6 0 1  7 0 1  8 0 1  9 0 1  10 0 1  11 0 1  12 0 1  13 0 1  14 0 1  15 0 1  16 0 1  17 0 1  18 0 1  19 0 1  20 0 1  0 1 1  1 1 1  2 1 1  3 1 1  4 1 1  5 1 1  6 1 1  7 1 1  8 1 1  9 1 1  10 1 1  11 1 1  12 1 1  13 1 1  14 1 1  15 1 1  16 1 1  17 1 1  18 1 1  19 1 1  20 1 1  0 2 1  1 2 1  2 2 1  3 2 1  4 2 1  5 2 1  6 2 1  7 2 1  8 2 1  9 2 1  10 2 1  11 2 1  12 2 1  13 2 1  14 2 1  15 2 1  16 2 1  17 2 1  18 2 1  19 2 1  20 2 1  0 3 1  1 3 1  2 3 1  3 3 1  4 3 1  5 3 1  6 3 1  7 3 1  8 3 1  9 3 1  10 3 1  11 3 1  12 3 1  13 3 1  14 3 1  15 3 1  16 3 1  17 3 1  18 3 1  19 3 1  20 3 1  0 4 1  1 4 1  2 4 1  3 4 1  4 4 1  5 4 1  6 4 1  7 4 1  8 4 1  9 4 1  10 4 1  11 4 1  12 4 1  13 4 1  14 4 1  15 4 1  16 4 1  17 4 1  18 4 1  19 4 1  20 4 1  0 5 1  1 5 1  2 5 1  3 5 1  4 5 1  5 5 1  6 5 1  7 5 1  8 5 1  9 5 1  10 5 1  11 5 1  12 5 1  13 5 1  14 5 1  15 5 1  16 5 1  17 5 1  18 5 1  19 5 1  20 5 1  0 6 1  1 6 1  2 6 1  3 6 1  4 6 1  5 6 1  6 6 1  7 6 1  8 6 1  9 6 1  10 6 1  11 6 1  12 6 1  13 6 1  14 6 1  15 6 1  16 6 1  17 6 1  18 6 1  19 6 1  20 6 1  0 7 1  1 7 1  2 7 1  3 7 1  4 7 1  5 7 1  6 7 1  7 7 1  8 7 1  9 7 1  10 7 1  11 7 1  12 7 1  13 7 1  14 7 1  15 7 1  16 7 1  17 7 1  18 7 1  19 7 1  20 7 1  0 8 1  1 8 1  2 8 1  3 8 1  4 8 1  5 8 1  6 8 1  7 8 1  8 8 1  9 8 1  10 8 1  11 8 1  12 8 1  13 8 1  14 8 1  15 8 1  16 8 1  17 8 1  18 8 1  19 8 1  20 8 1  0 9 1  1 9 1  2 9 1  3 9 1  4 9 1  5 9 1  6 9 1  7 9 1  8 9 1  9 9 1  10 9 1  11 9 1  12 9 1  13 9 1  14 9 1  15 9 1  16 9 1  17 9 1  18 9 1  19 9 1  20 9 1  0 10 1  1 10 1  2 10 1  3 10 1  4 10 1  5 10 1  6 10 1  7 10 1  8 10 1  9 10 1  10 10 1  11 10 1  12 10 1  13 10 1  14 10 1  15 10 1  16 10 1  17 10 1  18 10 1  19 10 1  20 10 1  0 11 1  1 11 1  2 11 1  3 11 1  4 11 1  5 11 1  6 11 1  7 11 1  8 11 1  9 11 1  10 11 1  11 11 1  12 11 1  13 11 1  14 11 1  15 11 1  16 11 1  17 11 1  18 11 1  19 11 1  20 11 1  0 12 1  1 12 1  2 12 1  3 12 1  4 12 1  5 12 1  6 12 1  7 12 1  8 12 1  9 12 1  10 12 1  11 12 1  12 12 1  13 12 1  14 12 1  15 12 1  16 12 1  17 12 1  18 12 1  19 12 1  20 12 1  0 0 2  1 0 2  2 0 2  3 0 2  4 0 2  5 0 2  6 0 2  7 0 2  8 0 2  9 0 2  10 0 2  11 0 2  12 0 2  13 0 2  14 0 2  15 0 2  16 0 2  17 0 2  18 0 2  19 0 2  20 0 2  0 1 2  1 1 2  2 1 2  3 1 2  4 1 2  5 1 2  6 1 2  7 1 2  8 1 2  9 1 2  10 1 2  11 1 2  12 1 2  13 1 2  14 1 2  15 1 2  16 1 2  17 1 2  18 1 2  19 1 2  20 1 2  0 2 2  1 2 2  2 2 2  3 2 2  4 2 2  5 2 2  6 2 2  7 2 2  8 2 2  9 2 2  10 2 2  11 2 2  12 2 2  13 2 2  14 2 2  15 2 2  16 2 2  17 2 2  18 2 2  19 2 2  20 2 2  0 3 2  1 3 2  2 3 2  3 3 2  4 3 2  5 3 2  6 3 2  7 3 2  8 3 2  9 3 2  10 3 2  11 3 2  12 3 2  13 3 2  14 3 2  15 3 2  16 3 2  17 3 2  18 3 2  19 3 2  20 3 2  0 4 2  1 4 2  2 4 2  3 4 2  4 4 2  5 4 2  6 4 2  7 4 2  8 4 2  9 4 2  10 4 2  11 4 2  12 4 2  13 4 2  14 4 2  15 4 2  16 4 2  17 4 2  18 4 2  19 4 2  20 4 2  0 5 2  1 5 2  2 5 2  3 5 2  4 5 2  5 5 2  6 5 2  7 5 2  8 5 2  9 5 2  10 5 2  11 5 2  12 5 2  13 5 2  14 5 2  15 5 2  16 5 2  17 5 2  18 5 2  19 5 2  20 5 2  0 6 2  1 6 2  2 6 2  3 6 2  4 6 2  5 6 2  6 6 2  7 6 2  8 6 2  9 6 2  10 6 2  11 6 2  12 6 2  13 6 2  14 6 2  15 6 2  16 6 2  17 6 2  18 6 2  19 6 2  20 6 2  0 7 2  1 7 2  2 7 2  3 7 2  4 7 2  5 7 2  6 7 2  7 7 2  8 7 2  9 7 2  10 7 2  11 7 2  12 7 2  13 7 2  14 7 2  15 7 2  16 7 2  17 7 2  18 7 2  19 7 2  20 7 2  0 8 2  1 8 2  2 8 2  3 8 2  4 8 2  5 8 2  6 8 2  7 8 2  8 8 2  9 8 2  10 8 2  11 8 2  12 8 2  13 8 2  14 8 2  15 8 2  16 8 2  17 8 2  18 8 2  19 8 2  20 8 2  0 9 2  1 9 2  2 9 2  3 9 2  4 9 2  5 9 2  6 9 2  7 9 2  8 9 2  9 9 2  10 9 2  11 9 2  12 9 2  13 9 2  14 9 2  15 9 2  16 9 2  17 9 2  18 9 2  19 9 2  20 9 2  0 10 2  1 10 2  2 10 2  3 10 2  4 10 2  5 10 2  6 10 2  7 10 2  8 10 2  9 10 2  10 10 2  11 10 2  12 10 2  13 10 2  14 10 2  15 10 2  16 10 2  17 10 2  18 10 2  19 10 2  20 10 2  0 11 2  1 11 2  2 11 2  3 11 2  4 11 2  5 11 2  6 11 2  7 11 2  8 11 2  9 11 2  10 11 2  11 11 2  12 11 2  13 11 2  14 11 2  15 11 2  16 11 2  17 11 2  18 11 2  19 11 2  20 11 2  0 12 2  1 12 2  2 12 2  3 12 2  4 12 2  5 12 2  6 12 2  7 12 2  8 12 2  9 12 2  10 12 2  11 12 2  12 12 2  13 12 2  14 12 2  15 12 2  16 12 2  17 12 2  18 12 2  19 12 2  20 12 2  0 0 3  1 0 3  2 0 3  3 0 3  4 0 3  5 0 3  6 0 3  7 0 3  8 0 3  9 0 3  10 0 3  11 0 3  12 0 3  13 0 3  14 0 3  15 0 3  16 0 3  17 0 3  18 0 3  19 0 3  20 0 3  0 1 3  1 1 3  2 1 3  3 1 3  4 1 3  5 1 3  6 1 3  7 1 3  8 1 3  9 1 3  10 1 3  11 1 3  12 1 3  13 1 3  14 1 3  15 1 3  16 1 3  17 1 3  18 1 3  19 1 3  20 1 3  0 2 3  1 2 3  2 2 3  3 2 3  4 2 3  5 2 3  6 2 3  7 2 3  8 2 3  9 2 3  10 2 3  11 2 3  12 2 3  13 2 3  14 2 3  15 2 3  16 2 3  17 2 3  18 2 3  19 2 3  20 2 3  0 3 3  1 3 3  2 3 3  3 3 3  4 3 3  5 3 3  6 3 3  7 3 3  8 3 3  9 3 3  10 3 3  11 3 3  12 3 3  13 3 3  14 3 3  15 3 3  16 3 3  17 3 3  18 3 3  19 3 3  20 3 3  0 4 3  1 4 3  2 4 3  3 4 3  4 4 3  5 4 3  6 4 3  7 4 3  8 4 3  9 4 3  10 4 3  11 4 3  12 4 3  13 4 3  14 4 3  15 4 3  16 4 3  17 4 3  18 4 3  19 4 3  20 4 3  0 5 3  1 5 3  2 5 3  3 5 3  4 5 3  5 5 3  6 5 3  7 5 3  8 5 3  9 5 3  10 5 3  11 5 3  12 5 3  13 5 3  14 5 3  15 5 3  16 5 3  17 5 3  18 5 3  19 5 3  20 5 3  0 6 3  1 6 3  2 6 3  3 6 3  4 6 3  5 6 3  6 6 3  7 6 3  8 6 3  9 6 3  10 6 3  11 6 3  12 6 3  13 6 3  14 6 3  15 6 3  16 6 3  17 6 3  18 6 3  19 6 3  20 6 3  0 7 3  1 7 3  2 7 3  3 7 3  4 7 3  5 7 3  6 7 3  7 7 3  8 7 3  9 7 3  10 7 3  11 7 3  12 7 3  13 7 3  14 7 3  15 7 3  16 7 3  17 7 3  18 7 3  19 7 3  20 7 3  0 8 3  1 8 3  2 8 3  3 8 3  4 8 3  5 8 3  6 8 3  7 8 3  8 8 3  9 8 3  10 8 3  11 8 3  12 8 3  13 8 3  14 8 3  15 8 3  16 8 3  17 8 3  18 8 3  19 8 3  20 8 3  0 9 3  1 9 3  2 9 3  3 9 3  4 9 3  5 9 3  6 9 3  7 9 3  8 9 3  9 9 3  10 9 3  11 9 3  12 9 3  13 9 3  14 9 3  15 9 3  16 9 3  17 9 3  18 9 3  19 9 3  20 9 3  0 10 3  1 10 3  2 10 3  3 10 3  4 10 3  5 10 3  6 10 3  7 10 3  8 10 3  9 10 3  10 10 3  11 10 3  12 10 3  13 10 3  14 10 3  15 10 3  16 10 3  17 10 3  18 10 3  19 10 3  20 10 3  0 11 3  1 11 3  2 11 3  3 11 3  4 11 3  5 11 3  6 11 3  7 11 3  8 11 3  9 11 3  10 11 3  11 11 3  12 11 3  13 11 3  14 11 3  15 11 3  16 11 3  17 11 3  18 11 3  19 11 3  20 11 3  0 12 3  1 12 3  2 12 3  3 12 3  4 12 3  5 12 3  6 12 3  7 12 3  8 12 3  9 12 3  10 12 3  11 12 3  12 12 3  13 12 3  14 12 3  15 12 3  16 12 3  17 12 3  18 12 3  19 12 3  20 12 3  0 0 4  1 0 4  2 0 4  3 0 4  4 0 4  5 0 4  6 0 4  7 0 4  8 0 4  9 0 4  10 0 4  11 0 4  12 0 4  13 0 4  14 0 4  15 0 4  16 0 4  17 0 4  18 0 4  19 0 4  20 0 4  0 1 4  1 1 4  2 1 4  3 1 4  4 1 4  5 1 4  6 1 4  7 1 4  8 1 4  9 1 4  10 1 4  11 1 4  12 1 4  13 1 4  14 1 4  15 1 4  16 1 4  17 1 4  18 1 4  19 1 4  20 1 4  0 2 4  1 2 4  2 2 4  3 2 4  4 2 4  5 2 4  6 2 4  7 2 4  8 2 4  9 2 4  10 2 4  11 2 4  12 2 4  13 2 4  14 2 4  15 2 4  16 2 4  17 2 4  18 2 4  19 2 4  20 2 4  0 3 4  1 3 4  2 3 4  3 3 4  4 3 4  5 3 4  6 3 4  7 3 4  8 3 4  9 3 4  10 3 4  11 3 4  12 3 4  13 3 4  14 3 4  15 3 4  16 3 4  17 3 4  18 3 4  19 3 4  20 3 4  0 4 4  1 4 4  2 4 4  3 4 4  4 4 4  5 4 4  6 4 4  7 4 4  8 4 4  9 4 4  10 4 4  11 4 4  12 4 4  13 4 4  14 4 4  15 4 4  16 4 4  17 4 4  18 4 4  19 4 4  20 4 4  0 5 4  1 5 4  2 5 4  3 5 4  4 5 4  5 5 4  6 5 4  7 5 4  8 5 4  9 5 4  10 5 4  11 5 4  12 5 4  13 5 4  14 5 4  15 5 4  16 5 4  17 5 4  18 5 4  19 5 4  20 5 4  0 6 4  1 6 4  2 6 4  3 6 4  4 6 4  5 6 4  6 6 4  7 6 4  8 6 4  9 6 4  10 6 4  11 6 4  12 6 4  13 6 4  14 6 4  15 6 4  16 6 4  17 6 4  18 6 4  19 6 4  20 6 4  0 7 4  1 7 4  2 7 4  3 7 4  4 7 4  5 7 4  6 7 4  7 7 4  8 7 4  9 7 4  10 7 4  11 7 4  12 7 4  13 7 4  14 7 4  15 7 4  16 7 4  17 7 4  18 7 4  19 7 4  20 7 4  0 8 4  1 8 4  2 8 4  3 8 4  4 8 4  5 8 4  6 8 4 
[...]
<PointData  Scalars="f_16"> 
<DataArray  type="Float64"  Name="f_16"  format="ascii">2.0391082475904646e+01  2.0391309035973190e+01  2.0391884500578904e+01  2.0392806510496726e+01  2.0394057122305306e+01  2.0395608035868072e+01  2.0397422728155103e+01  2.0399457783462420e+01  2.0401664077703021e+01  2.0403987998452898e+01  2.0406372743575414e+01  2.0408759695568655e+01  2.0411089849428276e+01  2.0413305260154218e+01  2.0415350465608846e+01  2.0417173825981635e+01  2.0418728690351909e+01  2.0419974213106489e+01  2.0420875350939138e+01  2.0421400529198507e+01  2.0421511728730369e+01  2.0390964463619675e+01  2.0391185528425762e+01  2.0391757712685042e+01  2.0392677275777725e+01  2.0393925548623095e+01  2.0395474005187484e+01  2.0397286086831954e+01  2.0399318409514848e+01  2.0401521906215368e+01  2.0403843032293718e+01  2.0406225058290765e+01  2.0408609441701788e+01  2.0410937254106859e+01  2.0413150630218659e+01  2.0415194197078971e+01  2.0417016432572442e+01  2.0418570889637909e+01  2.0419817200419981e+01  2.0420721732558746e+01  2.0421257684063828e+01  2.0421404104253909e+01  2.0390643651865627e+01  2.0390863160285271e+01  2.0391432365984532e+01  2.0392348218061358e+01  2.0393592059157807e+01  2.0395135372466886e+01  2.0396941676176937e+01  2.0398967710091693e+01  2.0401164558721465e+01  2.0403478845546104e+01  2.0405854019598348e+01  2.0408231723649884e+01  2.0410553219859814e+01  2.0412760840436022e+01  2.0414799424615282e+01  2.0416617698351821e+01  2.0418169548984128e+01  2.0419415138674061e+01  2.0420321745871270e+01  2.0420863846124760e+01  2.0421019566402844e+01  2.0390139408843297e+01  2.0390358045262854e+01  2.0390924123470811e+01  2.0391835130320789e+01  2.0393072659211111e+01  2.0394608375407486e+01  2.0396405989495598e+01  2.0398422459481470e+01  2.0400609111834047e+01  2.0402912830600510e+01  2.0405277338995297e+01  2.0407644563326354e+01  2.0409956055533268e+01  2.0412154442788122e+01  2.0414184867058005e+01  2.0415996373120144e+01  2.0417543197764573e+01  2.0418785892259340e+01  2.0419692103657397e+01  2.0420236296011581e+01  2.0420395007972900e+01  2.0389485795592464e+01  2.0389703419912944e+01  2.0390265894478592e+01  2.0391171009947620e+01  2.0392400643351507e+01  2.0393926726076671e+01  2.0395713242553263e+01  2.0397717444147663e+01  2.0399890972443249e+01  2.0402181046126397e+01  2.0404531738348087e+01  2.0406885335542750e+01  2.0409183754665740e+01  2.0411369987846246e+01  2.0413389537578013e+01  2.0415191799925079e+01  2.0416731343591547e+01  2.0417969001847055e+01  2.0418872566762307e+01  2.0419416311023273e+01  2.0419575976988529e+01  2.0388727557803168e+01  2.0388943827851286e+01  2.0389502147967178e+01  2.0390400499062942e+01  2.0391621035812545e+01  2.0393135991933171e+01  2.0394909671691735e+01  2.0396899666688007e+01  2.0399057980796329e+01  2.0401332215592674e+01  2.0403666843523560e+01  2.0406004560560735e+01  2.0408287695956496e+01  2.0410459648436145e+01  2.0412466311678298e+01  2.0414257445040100e+01  2.0415787933481742e+01  2.0417018846290198e+01  2.0417918075515729e+01  2.0418459788342798e+01  2.0418619425126586e+01  2.0387916756971610e+01  2.0388131303583311e+01  2.0388684992349098e+01  2.0389575969166344e+01  2.0390786670175267e+01  2.0392289645826704e+01  2.0394049536131764e+01  2.0396024288780264e+01  2.0398166286602329e+01  2.0400423532191155e+01  2.0402740916651840e+01  2.0405061565024454e+01  2.0407328236780732e+01  2.0409484751138187e+01  2.0411477399895460e+01  2.0413256302874817e+01  2.0414776648312507e+01  2.0415999726363310e+01  2.0416893539428582e+01  2.0417432242108013e+01  2.0417591201215746e+01  2.0387109202312075e+01  2.0387321672760791e+01  2.0387870379126699e+01  2.0388753681119852e+01  2.0389954320006979e+01  2.0391445161399830e+01  2.0393191166840545e+01  2.0395150622803438e+01  2.0397276275116710e+01  2.0399516513889072e+01  2.0401816637351537e+01  2.0404120188944670e+01  2.0406370347260495e+01  2.0408511339191154e+01  2.0410489839117250e+01  2.0412256309030358e+01  2.0413766221791413e+01  2.0414981076678714e+01  2.0415868995783875e+01  2.0416404168595772e+01  2.0416561971362778e+01  2.0386360756769797e+01  2.0386570774332942e+01  2.0387114233000499e+01  2.0387989858882772e+01  2.0389180735294389e+01  2.0390660011434107e+01  2.0392392916919771e+01  2.0394338023056971e+01  2.0396448389959982e+01  2.0398672751458026e+01  2.0400956772311712e+01  2.0403244375460911e+01  2.0405479120479150e+01  2.0407605604215050e+01  2.0409570846659999e+01  2.0411325617022609e+01  2.0412825642468103e+01  2.0414032609633480e+01  2.0414914750391496e+01  2.0415446287841416e+01  2.0415602596742435e+01  2.0385723828381387e+01  2.0385930784434301e+01  2.0386468651650969e+01  2.0387336840668489e+01  2.0388518771182888e+01  2.0389987768076544e+01  2.0391709217823113e+01  2.0393641883630018e+01  2.0395739062166939e+01  2.0397949761937365e+01  2.0400219949339874e+01  2.0402493863867491e+01  2.0404715384523097e+01  2.0406829418509751e+01  2.0408783275175772e+01  2.0410527980196438e+01  2.0412019472448495e+01  2.0413219593219726e+01  2.0414096657156353e+01  2.0414624877424171e+01  2.0414779512717718e+01  2.0385244586787355e+01  2.0385446895699296e+01  2.0385978408755129e+01  2.0386839597987620e+01  2.0388013936913104e+01  2.0389474647465036e+01  2.0391187088955746e+01  2.0393110093792213e+01  2.0395197100608055e+01  2.0397397308257126e+01  2.0399656903211710e+01  2.0401920360525754e+01  2.0404131798594374e+01  2.0406236357594775e+01  2.0408181564064375e+01  2.0409918636531852e+01  2.0411403674671213e+01  2.0412598640141702e+01  2.0413471909214046e+01  2.0413997632276221e+01  2.0414150669172383e+01  2.0384962112122171e+01  2.0385154530192565e+01  2.0385678163747137e+01  2.0386533222773263e+01  2.0387702021605321e+01  2.0389157160521737e+01  2.0390863761512612e+01  2.0392780615747462e+01  2.0394861217391810e+01  2.0397054870324247e+01  2.0399307891832965e+01  2.0401564900017938e+01  2.0403770159420322e+01  2.0405868952458178e+01  2.0407808938412749e+01  2.0409541455242941e+01  2.0411022708352604e+01  2.0412214757537921e+01  2.0413086079709807e+01  2.0413610870364444e+01  2.0413763290256675e+01  2.0384912891845349e+01  2.0385076848582763e+01  2.0385592041724216e+01  2.0386443508156180e+01  2.0387609918104065e+01  2.0389062955434376e+01  2.0390767501534484e+01  2.0392682293811603e+01  2.0394760833218729e+01  2.0396952453554814e+01  2.0399203511706691e+01  2.0401458668954330e+01  2.0403662233178839e+01  2.0405759528168637e+01  2.0407698251607755e+01  2.0409429778025412e+01  2.0410910355095645e+01  2.0412102121498933e+01  2.0412973792557096e+01  2.0413500440774680e+01  2.0413659383200521e+01  2.0391091841675042e+01  2.0391299747821023e+01  2.0391868795051611e+01  2.0392787942919401e+01  2.0394036845584367e+01  2.0395586507943264e+01  2.0397400185370461e+01  2.0399434385578239e+01  2.0401639959656560e+01  2.0403963291789221e+01  2.0406347586252931e+01  2.0408734236919475e+01  2.0411064253679555e+01  2.0413279711314257e+01  2.0415325177695994e+01  2.0417149066982198e+01  2.0418704842530151e+01  2.0419951940542873e+01  2.0420856110337937e+01  2.0421388171967298e+01  2.0421516913697804e+01  2.0390990807573960e+01  2.0391189592064649e+01  2.0391755444966783e+01  2.0392672447129701e+01  2.0393919268822984e+01  2.0395466716242240e+01  2.0397278031538843e+01  2.0399309761377108e+01  2.0401512813463281e+01  2.0403833635587056e+01  2.0406215498519000e+01  2.0408599863636493e+01  2.0410927808757265e+01  2.0413141478152884e+01  2.0415185515724978e+01  2.0417008433591082e+01  2.0418563863157559e+01  2.0419811644748489e+01  2.0420718811505402e+01  2.0421261138768777e+01  2.0421429411447985e+01  2.0390674850937401e+01  2.0390871528942057e+01  2.0391434350166111e+01  2.0392347703805157e+01  2.0393590171919659e+01  2.0395132557277002e+01  2.0396938179649286e+01  2.0398963710189577e+01  2.0401160207447418e+01  2.0403474285734948e+01  2.0405849392164399e+01  2.0408227170863594e+01  2.0410548887360971e+01  2.0412756880089031e+01  2.0414796000964341e+01  2.0416615004308145e+01  2.0418167847008363e+01  2.0419414887930984e+01  2.0420324078002199e+01  2.0420872630295374e+01  2.0421051195375441e+01  2.0390172533241874e+01  2.0390368338740519e+01  2.0390928044597040e+01  2.0391836586285212e+01  2.0393072783069247e+01  2.0394607615319767e+01  2.0396404594199755e+01  2.0398420608542661e+01  2.0400606958132496e+01  2.0402910516883882e+01  2.0405275004953364e+01  2.0407642348748794e+01  2.0409954102223487e+01  2.0412152897297794e+01  2.0414183886955918e+01  2.0415996142422749e+01  2.0417543968070813e+01  2.0418788111668182e+01  2.0419696902423567e+01  2.0420247585962329e+01  2.0420429322627832e+01  2.0389519850142932e+01  2.0389714774583130e+01  2.0390270923383827e+01  2.0391173607916041e+01  2.0392401942307469e+01  2.0393927174445025e+01  2.0395713089286485e+01  2.0397716868660559e+01  2.0399890126929510e+01  2.0402180071993790e+01  2.0404530773222511e+01  2.0406884516392608e+01  2.0409183219706925e+01  2.0411369879283512e+01  2.0413390007899473e+01  2.0415193027421676e+01  2.0416733573802908e+01  2.0417972677402460e+01  2.0418878814941756e+01  2.0419429042619988e+01  2.0419611692724210e+01  2.0388761987314719e+01  2.0388955737355715e+01  2.0389507793357158e+01  2.0390403749769185e+01  2.0391623017433488e+01  2.0393137150554860e+01  2.0394910254700179e+01  2.0396899851910177e+01  2.0399057918555812e+01  2.0401332045036909e+01  2.0403666699588314e+01  2.0406004577096702e+01  2.0408288007665664e+01  2.0410460393667858e+01  2.0412467638804060e+01  2.0414259528091147e+01  2.0415791013755136e+01  2.0417023362226534e+01  2.0417925148927925e+01  2.0418473313749782e+01  2.0418655824572355e+01  2.0387951116317257e+01  2.0388143348519616e+01  2.0388690841543855e+01  2.0389579459586386e+01  2.0390788917660899e+01  2.0392291092020024e+01  2.0394050425321829e+01  2.0396024796004390e+01  2.0398166559371951e+01  2.0400423706704089e+01  2.0402741124730493e+01  2.0405061937263685e+01  2.0407328904534790e+01  2.0409485849386304e+01  2.0411479073697507e+01  2.0413258723086198e+01  2.0414780053196818e+01  2.0416004551082029e+01  2.0416900899964535e+01  2.0417446013208068e+01  2.0417627716085917e+01  2.0387143071918775e+01  2.0387333451832912e+01  2.0387876033897289e+01  2.0388757010383717e+01  2.0389956427040154e+01  2.0391446481664310e+01  2.0393191940284485e+01  2.0395151020731312e+01  2.0397276441529662e+01  2.0399516581576510e+01  2.0401816734814322e+01  2.0404120443577703e+01  2.0406370887399802e+01  2.0408512297050027e+01  2.0410491357309329e+01  2.0412258556324357e+01  2.0413769434658914e+01  2.0414985688311358e+01  2.0415876117780989e+01  2.0416417658437283e+01  2.0416598081236298e+01  2.0386393698851382e+01  2.0386581874066280e+01  2.0387119281905598e+01  2.0387992610512526e+01  2.0389182277742911e+01  2.0390660772661739e+01  2.0392393131655474e+01  2.0394337858227409e+01  2.0396447985611527e+01  2.0398672236741078e+01  2.0400956272409001e+01  2.0403244014819940e+01  2.0405479024924244e+01  2.0407605903947754e+01  2.0409571682832247e+01  2.0411327157507824e+01  2.0412828123348724e+01  2.0414036463918247e+01  2.0414921088345420e+01  2.0415458957524908e+01  2.0415637795468758e+01  2.0385755306462968e+01  2.0385940720917620e+01  2.0386472610605093e+01  2.0387338520575927e+01  2.0388519243507655e+01  2.0389987452916476e+01  2.0391708344329306e+01  2.0393640613989266e+01  2.0395737532214106e+01  2.0397948097114853e+01  2.0400218271679741e+01  2.0402492295295097e+01  2.0404714049034247e+01  2.0406828445216387e+01  2.0408782804893374e+01  2.0410528181189857e+01  2.0412020581870518e+01  2.0413222045882303e+01  2.0414101566467362e+01  2.0414636097630641e+01  2.0414813246192697e+01  2.0385273749884355e+01  2.0385454896323477e+01  2.0385980475388870e+01  2.0386839376892347e+01  2.0388012489229421e+01  2.0389472387553877e+01  2.0391184240496408e+01  2.0393106813742325e+01  2.0395193520115324e+01  2.0397393548842686e+01  2.0399653083904870e+01  2.0401916601267132e+01  2.0404128222461733e+01  2.0406233093837297e+01  2.0408178754596733e+01  2.0409916451472828e+01  2.0411402353465398e+01  2.0412598620313766e+01  2.0413474310476150e+01  2.0414006340042192e+01  2.0414182039670127e+01  2.0384987326426035e+01  2.0385158563417427e+01  2.0385676090600878e+01  2.0386528770746121e+01  2.0387696277218758e+01  2.0389150538171304e+01  2.0390856477754902e+01  2.0392772819359497e+01  2.0394853032280910e+01  2.0397046412445992e+01  2.0399299276634345e+01  2.0401556245956883e+01  2.0403761590166553e+01  2.0405860599741491e+01  2.0407800948089861e+01  2.0409534001967430e+01  2.0411016034906950e+01  2.0412209300067843e+01  2.0413082948779127e+01  2.0413613971450204e+01  2.0413789432175612e+01  2.0384932115972720e+01  2.0385068643687472e+01  2.0385576687389996e+01  2.0386425474737518e+01  2.0387590394736812e+01  2.0389042351118363e+01  2.0390746008545651e+01  2.0392660036264655e+01  2.0394737914744510e+01  2.0396928975722293e+01  2.0399179581991572e+01  2.0401434404334644e+01  2.0403637762032783e+01  2.0405734992338996e+01  2.0407673810933865e+01  2.0409405622032196e+01  2.0410886735674421e+01  2.0412079459480548e+01  2.0412953096228254e+01  2.0413485221581315e+01  2.0413665441242284e+01  2.0391098186269470e+01  2.0391300365409215e+01  2.0391864434854391e+01  2.0392780252728819e+01  2.0394026955444058e+01  2.0395575101602546e+01  2.0397387683507052e+01  2.0399421068170199e+01  2.0401626035884160e+01  2.0403948938650988e+01  2.0406332970144121e+01  2.0408719526829760e+01  2.0411049631805678e+01  2.0413265386093869e+01  2.0415311405256006e+01  2.0417136189981022e+01  2.0418693360604426e+01  2.0419942630731374e+01  2.0420850190288053e+01  2.0421387274398555e+01  2.0421521396242298e+01  2.0391001455216536e+01  2.0391194122208368e+01  2.0391754948213762e+01  2.0392668669976924e+01  2.0393913356170565e+01  2.0395459354932967e+01  2.0397269645869766e+01  2.0399300635557864e+01  2.0401503160383648e+01  2.0403823634622711e+01  2.0406205316602684e+01  2.0408589668096813e+01  2.0410917777587116e+01  2.0413131812556887e+01  2.0415176460669876e+01  2.0417000314825007e+01  2.0418557154180309e+01  2.0419807083124237e+01  2.0420717573671208e+01  2.0421264931248672e+01  2.0421439182556348e+01  2.0390689089684038e+01  2.0390879514002457e+01  2.0391437276409086e+01  2.0392347381344305e+01  2.0393587767349000e+01  2.0395128765683687e+01  2.0396933430456276e+01  2.0398958291704574e+01  2.0401154335580223e+01  2.0403468141426448e+01  2.0405843142127498e+01  2.0408220980153644e+01  2.0410542929373733e+01  2.0412751348736386e+01  2.0414791130615622e+01  2.0416611105861470e+01  2.0418165374025850e+01  2.0419414555485680e+01  2.0420327056268562e+01  2.0420880698972372e+01  2.0421065506054429e+01  2.0390189106591333e+01  2.0390378650078816e+01  2.0390933308681799e+01  2.0391838633940647e+01  2.0393072791506174e+01  2.0394606284934280e+01  2.0396402357690015e+01  2.0398417756453167e+01  2.0400603707635476e+01  2.0402907049041417e+01  2.0405271485280533e+01  2.0407638939633468e+01  2.0409950972780972e+01  2.0412150235375538e+01  2.0414181918859551e+01  2.0415995168834037e+01  2.0417544430664673e+01  2.0418790714975167e+01  2.0419702817144543e+01  2.0420258621060682e+01  2.0420446674178940e+01  2.0389537834015915e+01  2.0389726532318505e+01  2.0390277671496690e+01  2.0391177177559264e+01  2.0392403511496326e+01  2.0393927444266463e+01  2.0395712492902966e+01  2.0397715696714044e+01  2.0399888596128132e+01  2.0402178362196231e+01  2.0404529047870909e+01  2.0406882934845019e+01  2.0409181947032078e+01  2.0411369098221400e+01  2.0413389938575232e+01  2.0415193963382752e+01  2.0416735949184208e+01  2.0417977190381876e+01  2.0418886634215774e+01  2.0419441981968166e+01  2.0419630951925207e+01  2.0388780691803849e+01  2.0388968268257905e+01  2.0389515364429350e+01  2.0390408183506715e+01  2.0391625486485420e+01  2.0393138352857996e+01  2.0394910621279038e+01  2.0396899671567748e+01  2.0399057406049788e+01  2.0401331377929932e+01  2.0403666038555023e+01  2.0406004078198293e+01  2.0408287832128561e+01  2.0410460719857490e+01  2.0412468681986709e+01  2.0414261576591571e+01  2.0415794496389964e+01  2.0417028972215196e+01  2.0417934050687172e+01  2.0418487316568370e+01  2.0418676124300852e+01  2.0387969965065022e+01  2.0388156083961352e+01  2.0388698671826820e+01  2.0389584193430274e+01  2.0390791718267174e+01  2.0392292651262615e+01  2.0394051169975555e+01  2.0396025011451002e+01  2.0398166457234840e+01  2.0400423461419944e+01  2.0402740893728673e+01  2.0405061873198569e+01  2.0407329165069449e+01  2.0409486609196655e+01  2.0411480544277534e+01  2.0413261188953950e+01  2.0414783939353278e+01  2.0416010546805605e+01  2.0416910165020294e+01  2.0417460350424587e+01  2.0417648318116182e+01  2.0387161525849343e+01  2.0387345857539316e+01  2.0387883590186370e+01  2.0388761507786104e+01  2.0389959016062399e+01  2.0391447845865798e+01  2.0393192500579843e+01  2.0395151057892477e+01  2.0397276163185040e+01  2.0399516158480733e+01  2.0401816320907049e+01  2.0404120188189189e+01  2.0406370945051556e+01  2.0408512839489411e+01  2.0410492593335633e+01  2.0412260767979745e+01  2.0413773044589718e+01  2.0414991383285091e+01  2.0415885054284900e+01  2.0416431634695783e+01  2.0416618290125427e+01  2.0386411199660209e+01  2.0386593396833927e+01  2.0387126009267774e+01  2.0387996309572713e+01  2.0389184083488647e+01  2.0390661358759303e+01  2.0392392912122514e+01  2.0394337108467589e+01  2.0396446908723227e+01  2.0398670999503921e+01  2.0400955025255669e+01  2.0403242904040944e+01  2.0405478202497036e+01  2.0407605539595117e+01  2.0409571983842469e+01  2.0411328404866516e+01  2.0412830738973696e+01  2.0414041134010112e+01  2.0414928968922343e+01  2.0415471847033402e+01  2.0415656893015246e+01  2.0385771219313501e+01  2.0385950732183069e+01  2.0386477872426482e+01  2.0387340770990885e+01  2.0388519600796386e+01  2.0389986580658547e+01  2.0391706649444650e+01  2.0393638366222039e+01  2.0395734929878483e+01  2.0397945302927532e+01  2.0400215432732260e+01  2.0402489555304655e+01  2.0404711558214185e+01  2.0406826372341996e+01  2.0408781357071813e+01  2.0410527639867890e+01  2.0412021369910057e+01  2.0413224850971208e+01  2.0414107547740588e+01  2.0414647061765752e+01  2.0414830410574734e+01  2.0385287315094665e+01  2.0385462626811456e+01  2.0385983470238809e+01  2.0386839348640393e+01  2.0388010545090069e+01  2.0389469183925538e+01  2.0391180178139859e+01  2.0393102156802076e+01  2.0395188461962121e+01  2.0397388248092202e+01  2.0399647684553123e+01  2.0401911245052887e+01  2.0404123058784243e+01  2.0406228291787695e+01  2.0408174522581060e+01  2.0409913072918666e+01  2.0411400253463892e+01  2.0412598488913545e+01  2.0413477311569199e+01  2.0414014297394548e+01  2.0414196214953360e+01  2.0384997761473734e+01  2.0385163106776918e+01  2.0385675810119000e+01  2.0386525402587800e+01  2.0387690939655524e+01  2.0389143887560721e+01  2.0390848910258168e+01  2.0392764593373073e+01  2.0394844335793376e+01  2.0397037399756055e+01  2.0399290088830526e+01  2.0401547023437963e+01  2.0403752482582220e+01  2.0405851777904246e+01  2.0407792623274887e+01  2.0409526460946861e+01  2.0411009705306874e+01  2.0412204871661984e+01  2.0413081581920597e+01  2.0413617497633268e+01  2.0413799189787625e+01  2.0384939466379517e+01  2.0385069694077210e+01  2.0385572670158883e+01  2.0386418264969677e+01  2.0387581148850636e+01  2.0389031730066272e+01  2.0390734404070056e+01  2.0392647700644101e+01  2.0394725030425402e+01  2.0396915692836835e+01  2.0399166039149833e+01  2.0401420741245428e+01  2.0403624129398676e+01  2.0405721563561073e+01  2.0407660800955345e+01  2.0409393321422726e+01  2.0410875573834709e+01  2.0412070120573702e+01  2.0412946714651483e+01  2.0413483563244807e+01  2.0413669805042485e+01  2.0391103758711534e+01  2.0391302586090351e+01  2.0391862466746428e+01  2.0392774997769283e+01  2.0394019389669452e+01  2.0395565929080391e+01  2.0397377370401319e+01  2.0399409930312679e+01  2.0401614306007250e+01  2.0403936808537711e+01  2.0406320615763946e