<?xml version="1.0"?>
<VTKFile type="UnstructuredGrid"  version="0.1"  >
<UnstructuredGrid>
<Piece  NumberOfPoints="1638" NumberOfCells="7200">
<Points>
<DataArray  type="Float64"  NumberOfComponents="3"  format="ascii">0 0 0  1 0 0  2 0 0  3 0 0  4 0 0  5 0 0  6 0 0  7 0 0  8 0 0  9 0 0  10 0 0  11 0 0  12 0 0  13 0 0  14 0 0  15 0 0  16 0 0  17 0 0  18 0 0  19 0 0  20 0 0  0 1 0  1 1 0  2 1 0  3 1 0  4 1 0  5 1 0  6 1 0  7 1 0  8 1 0  9 1 0  10 1 0  11 1 0  12 1 0  13 1 0  14 1 0  15 1 0  16 1 0  17 1 0  18 1 0  19 1 0  20 1 0  0 2 0  1 2 0  2 2 0  3 2 0  4 2 0  5 2 0  6 2 0  7 2 0  8 2 0  9 2 0  10 2 0  11 2 0  12 2 0  13 2 0  14 2 0  15 2 0  16 2 0  17 2 0  18 2 0  19 2 0  20 2 0  0 3 0  1 3 0  2 3 0  3 3 0  4 3 0  5 3 0  6 3 0  7 3 0  8 3 0  9 3 0  10 3 0  11 3 0  12 3 0  13 3 0  14 3 0  15 3 0  16 3 0  17 3 0  18 3 0  19 3 0  20 3 0  0 4 0  1 4 0  2 4 0  3 4 0  4 4 0  5 4 0  6 4 0  7 4 0  8 4 0  9 4 0  10 4 0  11 4 0  12 4 0  13 4 0  14 4 0  15 4 0  16 4 0  17 4 0  18 4 0  19 4 0  20 4 0  0 5 0  1 5 0  2 5 0  3 5 0  4 5 0  5 5 0  6 5 0  7 5 0  8 5 0  9 5 0  10 5 0  11 5 0  12 5 0  13 5 0  14 5 0  15 5 0  16 5 0  17 5 0  18 5 0  19 5 0  20 5 0  0 6 0  1 6 0  2 6 0  3 6 0  4 6 0  5 6 0  6 6 0  7 6 0  8 6 0  9 6 0  10 6 0  11 6 0  12 6 0  13 6 0  14 6 0  15 6 0  16 6 0  17 6 0  18 6 0  19 6 0  20 6 0  0 7 0  1 7 0  2 7 0  3 7 0  4 7 0  5 7 0  6 7 0  7 7 0  8 7 0  9 7 0  10 7 0  11 7 0  12 7 0  13 7 0  14 7 0  15 7 0  16 7 0  17 7 0  18 7 0  19 7 0  20 7 0  0 8 0  1 8 0  2 8 0  3 8 0  4 8 0  5 8 0  6 8 0  7 8 0  8 8 0  9 8 0  10 8 0  11 8 0  12 8 0  13 8 0  14 8 0  15 8 0  16 8 0  17 8 0  18 8 0  19 8 0  20 8 0  0 9 0  1 9 0  2 9 0  3 9 0  4 9 0  5 9 0  6 9 0  7 9 0  8 9 0  9 9 0  10 9 0  11 9 0  12 9 0  13 9 0  14 9 0  15 9 0  16 9 0  17 9 0  18 9 0  19 9 0  20 9 0  0 10 0  1 10 0  2 10 0  3 10 0  4 10 0  5 10 0  6 10 0  7 10 0  8 10 0  9 10 0  10 10 0  11 10 0  12 10 0  13 10 0  14 10 0  15 10 0  16 10 0  17 10 0  18 10 0  19 10 0  20 10 0  0 11 0  1 11 0  2 11 0  3 11 0  4 11 0  5 11 0  6 11 0  7 11 0  8 11 0  9 11 0  10 11 0  11 11 0  12 11 0  13 11 0  14 11 0  15 11 0  16 11 0  17 11 0  18 11 0  19 11 0  20 11 0  0 12 0  1 12 0  2 12 0  3 12 0  4 12 0  5 12 0  6 12 0  7 12 0  8 12 0  9 12 0  10 12 0  11 12 0  12 12 0  13 12 0  14 12 0  15 12 0  16 12 0  17 12 0  18 12 0  19 12 0  20 12 0  0 0 1  1 0 1  2 0 1  3 0 1  4 0 1  5 0 1  6 0 1  7 0 1  8 0 1  9 0 1  10 0 1  11 0 1  12 0 1  13 0 1  14 0 1  15 0 1  16 0 1  17 0 1  18 0 1  19 0 1  20 0 1  0 1 1  1 1 1  2 1 1  3 1 1  4 1 1  5 1 1  6 1 1  7 1 1  8 1 1  9 1 1  10 1 1  11 1 1  12 1 1  13 1 1  14 1 1  15 1 1  16 1 1  17 1 1  18 1 1  19 1 1  20 1 1  0 2 1  1 2 1  2 2 1  3 2 1  4 2 1  5 2 1  6 2 1  7 2 1  8 2 1  9 2 1  10 2 1  11 2 1  12 2 1  13 2 1  14 2 1  15 2 1  16 2 1  17 2 1  18 2 1  19 2 1  20 2 1  0 3 1  1 3 1  2 3 1  3 3 1  4 3 1  5 3 1  6 3 1  7 3 1  8 3 1  9 3 1  10 3 1  11 3 1  12 3 1  13 3 1  14 3 1  15 3 1  16 3 1  17 3 1  18 3 1  19 3 1  20 3 1  0 4 1  1 4 1  2 4 1  3 4 1  4 4 1  5 4 1  6 4 1  7 4 1  8 4 1  9 4 1  10 4 1  11 4 1  12 4 1  13 4 1  14 4 1  15 4 1  16 4 1  17 4 1  18 4 1  19 4 1  20 4 1  0 5 1  1 5 1  2 5 1  3 5 1  4 5 1  5 5 1  6 5 1  7 5 1  8 5 1  9 5 1  10 5 1  11 5 1  12 5 1  13 5 1  14 5 1  15 5 1  16 5 1  17 5 1  18 5 1  19 5 1  20 5 1  0 6 1  1 6 1  2 6 1  3 6 1  4 6 1  5 6 1  6 6 1  7 6 1  8 6 1  9 6 1  10 6 1  11 6 1  12 6 1  13 6 1  14 6 1  15 6 1  16 6 1  17 6 1  18 6 1  19 6 1  20 6 1  0 7 1  1 7 1  2 7 1  3 7 1  4 7 1  5 7 1  6 7 1  7 7 1  8 7 1  9 7 1  10 7 1  11 7 1  12 7 1  13 7 1  14 7 1  15 7 1  16 7 1  17 7 1  18 7 1  19 7 1  20 7 1  0 8 1  1 8 1  2 8 1  3 8 1  4 8 1  5 8 1  6 8 1  7 8 1  8 8 1  9 8 1  10 8 1  11 8 1  12 8 1  13 8 1  14 8 1  15 8 1  16 8 1  17 8 1  18 8 1  19 8 1  20 8 1  0 9 1  1 9 1  2 9 1  3 9 1  4 9 1  5 9 1  6 9 1  7 9 1  8 9 1  9 9 1  10 9 1  11 9 1  12 9 1  13 9 1  14 9 1  15 9 1  16 9 1  17 9 1  18 9 1  19 9 1  20 9 1  0 10 1  1 10 1  2 10 1  3 10 1  4 10 1  5 10 1  6 10 1  7 10 1  8 10 1  9 10 1  10 10 1  11 10 1  12 10 1  13 10 1  14 10 1  15 10 1  16 10 1  17 10 1  18 10 1  19 10 1  20 10 1  0 11 1  1 11 1  2 11 1  3 11 1  4 11 1  5 11 1  6 11 1  7 11 1  8 11 1  9 11 1  10 11 1  11 11 1  12 11 1  13 11 1  14 11 1  15 11 1  16 11 1  17 11 1  18 11 1  19 11 1  20 11 1  0 12 1  1 12 1  2 12 1  3 12 1  4 12 1  5 12 1  6 12 1  7 12 1  8 12 1  9 12 1  10 12 1  11 12 1  12 12 1  13 12 1  14 12 1  15 12 1  16 12 1  17 12 1  18 12 1  19 12 1  20 12 1  0 0 2  1 0 2  2 0 2  3 0 2  4 0 2  5 0 2  6 0 2  7 0 2  8 0 2  9 0 2  10 0 2  11 0 2  12 0 2  13 0 2  14 0 2  15 0 2  16 0 2  17 0 2  18 0 2  19 0 2  20 0 2  0 1 2  1 1 2  2 1 2  3 1 2  4 1 2  5 1 2  6 1 2  7 1 2  8 1 2  9 1 2  10 1 2  11 1 2  12 1 2  13 1 2  14 1 2  15 1 2  16 1 2  17 1 2  18 1 2  19 1 2  20 1 2  0 2 2  1 2 2  2 2 2  3 2 2  4 2 2  5 2 2  6 2 2  7 2 2  8 2 2  9 2 2  10 2 2  11 2 2  12 2 2  13 2 2  14 2 2  15 2 2  16 2 2  17 2 2  18 2 2  19 2 2  20 2 2  0 3 2  1 3 2  2 3 2  3 3 2  4 3 2  5 3 2  6 3 2  7 3 2  8 3 2  9 3 2  10 3 2  11 3 2  12 3 2  13 3 2  14 3 2  15 3 2  16 3 2  17 3 2  18 3 2  19 3 2  20 3 2  0 4 2  1 4 2  2 4 2  3 4 2  4 4 2  5 4 2  6 4 2  7 4 2  8 4 2  9 4 2  10 4 2  11 4 2  12 4 2  13 4 2  14 4 2  15 4 2  16 4 2  17 4 2  18 4 2  19 4 2  20 4 2  0 5 2  1 5 2  2 5 2  3 5 2  4 5 2  5 5 2  6 5 2  7 5 2  8 5 2  9 5 2  10 5 2  11 5 2  12 5 2  13 5 2  14 5 2  15 5 2  16 5 2  17 5 2  18 5 2  19 5 2  20 5 2  0 6 2  1 6 2  2 6 2  3 6 2  4 6 2  5 6 2  6 6 2  7 6 2  8 6 2  9 6 2  10 6 2  11 6 2  12 6 2  13 6 2  14 6 2  15 6 2  16 6 2  17 6 2  18 6 2  19 6 2  20 6 2  0 7 2  1 7 2  2 7 2  3 7 2  4 7 2  5 7 2  6 7 2  7 7 2  8 7 2  9 7 2  10 7 2  11 7 2  12 7 2  13 7 2  14 7 2  15 7 2  16 7 2  17 7 2  18 7 2  19 7 2  20 7 2  0 8 2  1 8 2  2 8 2  3 8 2  4 8 2  5 8 2  6 8 2  7 8 2  8 8 2  9 8 2  10 8 2  11 8 2  12 8 2  13 8 2  14 8 2  15 8 2  16 8 2  17 8 2  18 8 2  19 8 2  20 8 2  0 9 2  1 9 2  2 9 2  3 9 2  4 9 2  5 9 2  6 9 2  7 9 2  8 9 2  9 9 2  10 9 2  11 9 2  12 9 2  13 9 2  14 9 2  15 9 2  16 9 2  17 9 2  18 9 2  19 9 2  20 9 2  0 10 2  1 10 2  2 10 2  3 10 2  4 10 2  5 10 2  6 10 2  7 10 2  8 10 2  9 10 2  10 10 2  11 10 2  12 10 2  13 10 2  14 10 2  15 10 2  16 10 2  17 10 2  18 10 2  19 10 2  20 10 2  0 11 2  1 11 2  2 11 2  3 11 2  4 11 2  5 11 2  6 11 2  7 11 2  8 11 2  9 11 2  10 11 2  11 11 2  12 11 2  13 11 2  14 11 2  15 11 2  16 11 2  17 11 2  18 11 2  19 11 2  20 11 2  0 12 2  1 12 2  2 12 2  3 12 2  4 12 2  5 12 2  6 12 2  7 12 2  8 12 2  9 12 2  10 12 2  11 12 2  12 12 2  13 12 2  14 12 2  15 12 2  16 12 2  17 12 2  18 12 2  19 12 2  20 12 2  0 0 3  1 0 3  2 0 3  3 0 3  4 0 3  5 0 3  6 0 3  7 0 3  8 0 3  9 0 3  10 0 3  11 0 3  12 0 3  13 0 3  14 0 3  15 0 3  16 0 3  17 0 3  18 0 3  19 0 3  20 0 3  0 1 3  1 1 3  2 1 3  3 1 3  4 1 3  5 1 3  6 1 3  7 1 3  8 1 3  9 1 3  10 1 3  11 1 3  12 1 3  13 1 3  14 1 3  15 1 3  16 1 3  17 1 3  18 1 3  19 1 3  20 1 3  0 2 3  1 2 3  2 2 3  3 2 3  4 2 3  5 2 3  6 2 3  7 2 3  8 2 3  9 2 3  10 2 3  11 2 3  12 2 3  13 2 3  14 2 3  15 2 3  16 2 3  17 2 3  18 2 3  19 2 3  20 2 3  0 3 3  1 3 3  2 3 3  3 3 3  4 3 3  5 3 3  6 3 3  7 3 3  8 3 3  9 3 3  10 3 3  11 3 3  12 3 3  13 3 3  14 3 3  15 3 3  16 3 3  17 3 3  18 3 3  19 3 3  20 3 3  0 4 3  1 4 3  2 4 3  3 4 3  4 4 3  5 4 3  6 4 3  7 4 3  8 4 3  9 4 3  10 4 3  11 4 3  12 4 3  13 4 3  14 4 3  15 4 3  16 4 3  17 4 3  18 4 3  19 4 3  20 4 3  0 5 3  1 5 3  2 5 3  3 5 3  4 5 3  5 5 3  6 5 3  7 5 3  8 5 3  9 5 3  10 5 3  11 5 3  12 5 3  13 5 3  14 5 3  15 5 3  16 5 3  17 5 3  18 5 3  19 5 3  20 5 3  0 6 3  1 6 3  2 6 3  3 6 3  4 6 3  5 6 3  6 6 3  7 6 3  8 6 3  9 6 3  10 6 3  11 6 3  12 6 3  13 6 3  14 6 3  15 6 3  16 6 3  17 6 3  18 6 3  19 6 3  20 6 3  0 7 3  1 7 3  2 7 3  3 7 3  4 7 3  5 7 3  6 7 3  7 7 3  8 7 3  9 7 3  10 7 3  11 7 3  12 7 3  13 7 3  14 7 3  15 7 3  16 7 3  17 7 3  18 7 3  19 7 3  20 7 3  0 8 3  1 8 3  2 8 3  3 8 3  4 8 3  5 8 3  6 8 3  7 8 3  8 8 3  9 8 3  10 8 3  11 8 3  12 8 3  13 8 3  14 8 3  15 8 3  16 8 3  17 8 3  18 8 3  19 8 3  20 8 3  0 9 3  1 9 3  2 9 3  3 9 3  4 9 3  5 9 3  6 9 3  7 9 3  8 9 3  9 9 3  10 9 3  11 9 3  12 9 3  13 9 3  14 9 3  15 9 3  16 9 3  17 9 3  18 9 3  19 9 3  20 9 3  0 10 3  1 10 3  2 10 3  3 10 3  4 10 3  5 10 3  6 10 3  7 10 3  8 10 3  9 10 3  10 10 3  11 10 3  12 10 3  13 10 3  14 10 3  15 10 3  16 10 3  17 10 3  18 10 3  19 10 3  20 10 3  0 11 3  1 11 3  2 11 3  3 11 3  4 11 3  5 11 3  6 11 3  7 11 3  8 11 3  9 11 3  10 11 3  11 11 3  12 11 3  13 11 3  14 11 3  15 11 3  16 11 3  17 11 3  18 11 3  19 11 3  20 11 3  0 12 3  1 12 3  2 12 3  3 12 3  4 12 3  5 12 3  6 12 3  7 12 3  8 12 3  9 12 3  10 12 3  11 12 3  12 12 3  13 12 3  14 12 3  15 12 3  16 12 3  17 12 3  18 12 3  19 12 3  20 12 3  0 0 4  1 0 4  2 0 4  3 0 4  4 0 4  5 0 4  6 0 4  7 0 4  8 0 4  9 0 4  10 0 4  11 0 4  12 0 4  13 0 4  14 0 4  15 0 4  16 0 4  17 0 4  18 0 4  19 0 4  20 0 4  0 1 4  1 1 4  2 1 4  3 1 4  4 1 4  5 1 4  6 1 4  7 1 4  8 1 4  9 1 4  10 1 4  11 1 4  12 1 4  13 1 4  14 1 4  15 1 4  16 1 4  17 1 4  18 1 4  19 1 4  20 1 4  0 2 4  1 2 4  2 2 4  3 2 4  4 2 4  5 2 4  6 2 4  7 2 4  8 2 4  9 2 4  10 2 4  11 2 4  12 2 4  13 2 4  14 2 4  15 2 4  16 2 4  17 2 4  18 2 4  19 2 4  20 2 4  0 3 4  1 3 4  2 3 4  3 3 4  4 3 4  5 3 4  6 3 4  7 3 4  8 3 4  9 3 4  10 3 4  11 3 4  12 3 4  13 3 4  14 3 4  15 3 4  16 3 4  17 3 4  18 3 4  19 3 4  20 3 4  0 4 4  1 4 4  2 4 4  3 4 4  4 4 4  5 4 4  6 4 4  7 4 4  8 4 4  9 4 4  10 4 4  11 4 4  12 4 4  13 4 4  14 4 4  15 4 4  16 4 4  17 4 4  18 4 4  19 4 4  20 4 4  0 5 4  1 5 4  2 5 4  3 5 4  4 5 4  5 5 4  6 5 4  7 5 4  8 5 4  9 5 4  10 5 4  11 5 4  12 5 4  13 5 4  14 5 4  15 5 4  16 5 4  17 5 4  18 5 4  19 5 4  20 5 4  0 6 4  1 6 4  2 6 4  3 6 4  4 6 4  5 6 4  6 6 4  7 6 4  8 6 4  9 6 4  10 6 4  11 6 4  12 6 4  13 6 4  14 6 4  15 6 4  16 6 4  17 6 4  18 6 4  19 6 4  20 6 4  0 7 4  1 7 4  2 7 4  3 7 4  4 7 4  5 7 4  6 7 4  7 7 4  8 7 4  9 7 4  10 7 4  11 7 4  12 7 4  13 7 4  14 7 4  15 7 4  16 7 4  17 7 4  18 7 4  19 7 4  20 7 4  0 8 4  1 8 4  2 8 4  3 8 4  4 8 4  5 8 4  6 8 4 
[...]
<PointData  Scalars="f_16"> 
<DataArray  type="Float64"  Name="f_16"  format="ascii">2.0392338045993906e+01  2.0392792876006215e+01  2.0394039482014890e+01  2.0396067553838481e+01  2.0398841478327764e+01  2.0402307590313697e+01  2.0406395987412395e+01  2.0411021337516001e+01  2.0416083699948814e+01  2.0421469682084695e+01  2.0427054089367431e+01  2.0432702163184739e+01  2.0438272446824481e+01  2.0443620254715615e+01  2.0448601638327869e+01  2.0453077633992404e+01  2.0456918407366803e+01  2.0460006540751245e+01  2.0462237652696800e+01  2.0463513092491905e+01  2.0463708443978920e+01  2.0391545928596887e+01  2.0392016787312205e+01  2.0393259771121361e+01  2.0395275286573042e+01  2.0398030647554023e+01  2.0401473324608823e+01  2.0405534157850568e+01  2.0410128511502489e+01  2.0415157190138348e+01  2.0420507621897098e+01  2.0426055511686304e+01  2.0431667071685514e+01  2.0437201875193900e+01  2.0442516315592190e+01  2.0447467577605511e+01  2.0451917943270857e+01  2.0455739163009984e+01  2.0458816538307651e+01  2.0461052382491026e+01  2.0462369145537821e+01  2.0462715598759715e+01  2.0389563233514746e+01  2.0390037468678170e+01  2.0391265910326183e+01  2.0393250703920522e+01  2.0395961240045363e+01  2.0399346730168926e+01  2.0403339627338312e+01  2.0407856964543498e+01  2.0412801365781657e+01  2.0418062267696694e+01  2.0423517578303585e+01  2.0429035892319732e+01  2.0434479317379342e+01  2.0439706902971349e+01  2.0444578597443066e+01  2.0448959592687693e+01  2.0452724864352582e+01  2.0455763695190555e+01  2.0457983941633938e+01  2.0459315177053416e+01  2.0459704233845507e+01  2.0386488594376523e+01  2.0386957269098126e+01  2.0388158287566302e+01  2.0390093745398346e+01  2.0392734362238009e+01  2.0396031194645811e+01  2.0399918840209310e+01  2.0404316762651078e+01  2.0409130326018801e+01  2.0414252028276422e+01  2.0419563150090582e+01  2.0424935937836839e+01  2.0430236378467146e+01  2.0435327564832125e+01  2.0440073587753670e+01  2.0444343828970315e+01  2.0448017471027573e+01  2.0450987966122820e+01  2.0453166949047812e+01  2.0454485735287815e+01  2.0454885728437592e+01  2.0382519357055781e+01  2.0382976314379331e+01  2.0384138842436094e+01  2.0386008889022516e+01  2.0388558380280362e+01  2.0391740345721900e+01  2.0395491898890626e+01  2.0399735492327597e+01  2.0404379933810052e+01  2.0409321606754286e+01  2.0414446089944814e+01  2.0419630287713002e+01  2.0424745126746188e+01  2.0429658820367624e+01  2.0434240640299492e+01  2.0438365070309015e+01  2.0441916141824507e+01  2.0444791632123128e+01  2.0446906458404865e+01  2.0448193200917743e+01  2.0448591487629283e+01  2.0377921866375157e+01  2.0378362611806356e+01  2.0379478378539460e+01  2.0381271097745632e+01  2.0383714007908313e+01  2.0386762263001255e+01  2.0390355740741317e+01  2.0394420236977986e+01  2.0398868457265955e+01  2.0403601212580575e+01  2.0408508995845356e+01  2.0413474041477450e+01  2.0418372920833182e+01  2.0423079674419586e+01  2.0427469422043455e+01  2.0431422323931429e+01  2.0434827682809761e+01  2.0437587842715416e+01  2.0439621192637244e+01  2.0440862296481232e+01  2.0441251530732206e+01  2.0373008384333129e+01  2.0373429753452218e+01  2.0374493664408643e+01  2.0376202187545633e+01  2.0378530010247157e+01  2.0381434506073862e+01  2.0384858414083844e+01  2.0388731005484445e+01  2.0392969063971169e+01  2.0397478056883543e+01  2.0402153661024926e+01  2.0406883739313390e+01  2.0411550818773915e+01  2.0416035071019522e+01  2.0420217738668196e+01  2.0423984884012455e+01  2.0427231253305507e+01  2.0429863918467113e+01  2.0431805031638739e+01  2.0432991836975319e+01  2.0433366796469397e+01  2.0368114343851644e+01  2.0368514402675466e+01  2.0369524646344097e+01  2.0371147533899947e+01  2.0373359314638694e+01  2.0376119555768224e+01  2.0379373761537337e+01  2.0383054564529697e+01  2.0387082718761175e+01  2.0391368251647592e+01  2.0395811935587208e+01  2.0400307174733150e+01  2.0404742357437964e+01  2.0409003677013700e+01  2.0412978368620465e+01  2.0416558247327426e+01  2.0419643355987180e+01  2.0422145410475014e+01  2.0423990422079466e+01  2.0425118732080211e+01  2.0425475606476400e+01  2.0363575372802543e+01  2.0363953191582063e+01  2.0364911007492992e+01  2.0366452175857699e+01  2.0368554563796174e+01  2.0371179709722462e+01  2.0374275544940630e+01  2.0377777686106029e+01  2.0381610463208528e+01  2.0385688052600084e+01  2.0389915889467371e+01  2.0394192461054615e+01  2.0398411532688950e+01  2.0402464810830558e+01  2.0406244995777080e+01  2.0409649120529490e+01  2.0412582007760346e+01  2.0414959575399010e+01  2.0416711440317247e+01  2.0417781146834258e+01  2.0418117297549571e+01  2.0359705417225641e+01  2.0360060265417165e+01  2.0360969204843112e+01  2.0362437448697531e+01  2.0364444290057342e+01  2.0366952664812864e+01  2.0369912293894796e+01  2.0373261139649902e+01  2.0376926454800959e+01  2.0380825874946737e+01  2.0384868759797140e+01  2.0388957891149051e+01  2.0392991578693060e+01  2.0396866176494903e+01  2.0400478964437792e+01  2.0403731299352721e+01  2.0406531890274721e+01  2.0408799983939872e+01  2.0410468037480921e+01  2.0411482448544021e+01  2.0411795866628609e+01  2.0356778582625306e+01  2.0357107190882900e+01  2.0357971697252388e+01  2.0359380061916980e+01  2.0361311762804778e+01  2.0363729915322512e+01  2.0366585068344783e+01  2.0369816686220968e+01  2.0373354100317872e+01  2.0377117502157901e+01  2.0381019194206530e+01  2.0384965195705348e+01  2.0388857244005582e+01  2.0392595186799184e+01  2.0396079714553320e+01  2.0399215334578443e+01  2.0401913442555440e+01  2.0404095305135872e+01  2.0405694679614662e+01  2.0406659251418162e+01  2.0406946285756881e+01  2.0355020506101155e+01  2.0355307391875865e+01  2.0356131411750862e+01  2.0357497391456285e+01  2.0359380516762837e+01  2.0361742059258269e+01  2.0364532312799863e+01  2.0367691370495663e+01  2.0371149725661454e+01  2.0374829095061916e+01  2.0378643572680595e+01  2.0382501161434572e+01  2.0386305700528023e+01  2.0389959171838544e+01  2.0393364324484669e+01  2.0396427501863649e+01  2.0399061486132602e+01  2.0401188073995762e+01  2.0402739915900096e+01  2.0403660893090905e+01  2.0403905879828315e+01  2.0354626616343907e+01  2.0354809022032498e+01  2.0355602403349728e+01  2.0356951685273405e+01  2.0358819432322502e+01  2.0361164010878330e+01  2.0363935096687371e+01  2.0367072825990732e+01  2.0370507992419054e+01  2.0374162750179963e+01  2.0377951720485509e+01  2.0381783495001581e+01  2.0385562538100690e+01  2.0389191465140669e+01  2.0392573630976237e+01  2.0395615901765151e+01  2.0398231383913341e+01  2.0400341641283543e+01  2.0401876978817363e+01  2.0402768264762209e+01  2.0402890841369260e+01  2.0392311570559528e+01  2.0392705480404764e+01  2.0393934292399013e+01  2.0395954112928642e+01  2.0398721970757595e+01  2.0402182430977852e+01  2.0406265137654049e+01  2.0410884675065034e+01  2.0415941154903379e+01  2.0421321303064115e+01  2.0426900082183522e+01  2.0432542915140111e+01  2.0438108542530699e+01  2.0443452488936316e+01  2.0448431035515025e+01  2.0452905496341049e+01  2.0456746446411493e+01  2.0459837235739712e+01  2.0462075145750600e+01  2.0463364507993834e+01  2.0463576340229320e+01  2.0391588118173523e+01  2.0392009966552425e+01  2.0393238235914041e+01  2.0395247423811895e+01  2.0397998814853246e+01  2.0401438338924262e+01  2.0405496393722363e+01  2.0410088215812362e+01  2.0415114596223905e+01  2.0420463001842226e+01  2.0426009203827171e+01  2.0431619495226609e+01  2.0437153537293170e+01  2.0442467815392085e+01  2.0447419614044417e+01  2.0451871341046392e+01  2.0455694954594538e+01  2.0458776228150278e+01  2.0461018913484995e+01  2.0462351137102889e+01  2.0462749706057963e+01  2.0389629523337369e+01  2.0390055585225824e+01  2.0391270244756289e+01  2.0393249475073709e+01  2.0395956835733458e+01  2.0399340074833567e+01  2.0403331216834115e+01  2.0407847156775063e+01  2.0412790484373247e+01  2.0418050648281177e+01  2.0423505591681337e+01  2.0429023955564535e+01  2.0434467897943332e+01  2.0439696519937701e+01  2.0444569826104434e+01  2.0448953085773162e+01  2.0452721428360640e+01  2.0455764565205310e+01  2.0457991887387841e+01  2.0459339489166982e+01  2.0459784878461207e+01  2.0386565093533182e+01  2.0386986410521434e+01  2.0388174212306886e+01  2.0390104597957745e+01  2.0392742535969514e+01  2.0396037651589825e+01  2.0399924121570912e+01  2.0404321267670092e+01  2.0409134409442153e+01  2.0414256042866811e+01  2.0419567467187626e+01  2.0424940956596945e+01  2.0430242528665495e+01  2.0435335307282688e+01  2.0440083418458389e+01  2.0444356300476493e+01  2.0448033270799780e+01  2.0451008200859761e+01  2.0453194280646851e+01  2.0454529389313823e+01  2.0454985084960171e+01  2.0382600348512916e+01  2.0383011446317841e+01  2.0384161375639192e+01  2.0386026791217393e+01  2.0388574015844970e+01  2.0391754683291975e+01  2.0395505493931921e+01  2.0399748756275685e+01  2.0404393226772886e+01  2.0409335277138759e+01  2.0414460493148347e+01  2.0419645794215114e+01  2.0424762124378809e+01  2.0429677714777608e+01  2.0434261859696214e+01  2.0438389087977512e+01  2.0441943556024015e+01  2.0444823449906195e+01  2.0446945211187924e+01  2.0448247805515336e+01  2.0448699999604948e+01  2.0378003911726037e+01  2.0378400756316008e+01  2.0379504624895144e+01  2.0381293141970968e+01  2.0383734150181969e+01  2.0386781454793724e+01  2.0390374530680415e+01  2.0394439029324637e+01  2.0398887600209726e+01  2.0403621035486360e+01  2.0408529826582608e+01  2.0413496213880528e+01  2.0418396776966603e+01  2.0423105565590866e+01  2.0427497714540831e+01  2.0431453422645308e+01  2.0434862111135999e+01  2.0437626519815865e+01  2.0439666510250490e+01  2.0440922786942618e+01  2.0441363684451861e+01  2.0373088778528238e+01  2.0373468451785378e+01  2.0374521206722175e+01  2.0376225933686495e+01  2.0378552166142939e+01  2.0381455984986289e+01  2.0384879739829049e+01  2.0388752559136538e+01  2.0392991167834793e+01  2.0397501009738129e+01  2.0402177754540634e+01  2.0406909265338182e+01  2.0411578072024088e+01  2.0416064350993711e+01  2.0420249356545014e+01  2.0424019187151814e+01  2.0427268704067899e+01  2.0429905362082422e+01  2.0431852728172714e+01  2.0433053923668858e+01  2.0433478130285913e+01  2.0368190660481947e+01  2.0368551320392552e+01  2.0369551147075864e+01  2.0371170599996194e+01  2.0373381033066138e+01  2.0376140782831040e+01  2.0379394980322054e+01  2.0383076119113156e+01  2.0387104893953470e+01  2.0391391306600255e+01  2.0395836119736661e+01  2.0400332735345497e+01  2.0404769543099224e+01  2.0409032740720836e+01  2.0413009575962661e+01  2.0416591901757286e+01  2.0419679876113246e+01  2.0422185587786483e+01  2.0424036407829973e+01  2.0425178298339631e+01  2.0425582039197423e+01  2.0363645198301196e+01  2.0363985927717817e+01  2.0364934029911794e+01  2.0366472056951629e+01  2.0368573250229321e+01  2.0371197984461801e+01  2.0374293836498122e+01  2.0377796289762749e+01  2.0381629616770248e+01  2.0385707968831355e+01  2.0389936772045314e+01  2.0394214512795884e+01  2.0398434960169087e+01  2.0402489828874266e+01  2.0406271837051968e+01  2.0409678061692194e+01  2.0412613445517778e+01  2.0414994275267503e+01  2.0416751483099631e+01  2.0417834008109253e+01  2.0418214883652688e+01  2.0359765814264144e+01  2.0360085957643264e+01  2.0360985830610975e+01  2.0362451124925911e+01  2.0364456803922462e+01  2.0366964712325817e+01  2.0369924236745817e+01  2.0373273213530606e+01  2.0376938842002907e+01  2.0380838736421257e+01  2.0384882251755418e+01  2.0388972174428961e+01  2.0393006824790273e+01  2.0396882573578630e+01  2.0400496728399133e+01  2.0403750701012790e+01  2.0406553331227144e+01  2.0408824240254781e+01  2.0410497179061650e+01  2.0411523780467110e+01  2.0411880261270959e+01  2.0356824378695933e+01  2.0357121032615446e+01  2.0357976988798175e+01  2.0359382404346334e+01  2.0361312777553660e+01  2.0363730200769648e+01  2.0366584903854314e+01  2.0369816232130592e+01  2.0373353470411889e+01  2.0377116797124195e+01  2.0381018519950103e+01  2.0384964674477860e+01  2.0388857022109928e+01  2.0392595442042985e+01  2.0396080668332349e+01  2.0399217279576121e+01  2.0401916818679410e+01  2.0404100944401975e+01  2.0405704731907477e+01  2.0406681116174617e+01  2.0407010533748917e+01  2.0355038479873347e+01  2.0355296228271577e+01  2.0356111500008918e+01  2.0357474000551637e+01  2.0359355165965617e+01  2.0361715227818863e+01  2.0364504149591166e+01  2.0367661910231337e+01  2.0371118970836097e+01  2.0374797055154403e+01  2.0378610286558395e+01  2.0382466711602241e+01  2.0386270223021754e+01  2.0389922864661063e+01  2.0393327458885373e+01  2.0396390446415065e+01  2.0399024774961038e+01  2.0401152644686494e+01  2.0402708089671350e+01  2.0403640784543768e+01  2.0403930923235951e+01  2.0354576936141921e+01  2.0354720831250670e+01  2.0355501549184822e+01  2.0356845035155178e+01  2.0358708618988082e+01  2.0361049226673444e+01  2.0363816122980698e+01  2.0366949344632953e+01  2.0370379702669752e+01  2.0374029425662503e+01  2.0377813243155401e+01  2.0381639877396356e+01  2.0385413937801705e+01  2.0389038193367092e+01  2.0392416157361513e+01  2.0395454859696390e+01  2.0398067591664024e+01  2.0400176220205235e+01  2.0401712120833263e+01  2.0402612850631574e+01  2.0402805154613777e+01  2.0392295498001701e+01  2.0392674155912765e+01  2.0393890318460425e+01  2.0395901551407004e+01  2.0398663229723567e+01  2.0402118770911738e+01  2.0406197217110769e+01  2.0410812875077404e+01  2.0415865760355590e+01  2.0421242606033424e+01  2.0426818443034065e+01  2.0432458800790521e+01  2.0438022554118643e+01  2.0443365389565908e+01  2.0448343791522522e+01  2.0452819352259066e+01  2.0456663062681660e+01  2.0459758913573189e+01  2.0462005061503213e+01  2.0463306349875207e+01  2.0463531314746483e+01  2.0391593551345238e+01  2.0392001415843101e+01  2.0393217876300920e+01  2.0395219101206180e+01  2.0397964958578978e+01  2.0401400306647101e+01  2.0405454953878344e+01  2.0410043850282445e+01  2.0415067672859770e+01  2.0420413872869197e+01  2.0425958263360076e+01  2.0431567214586266e+01  2.0437100490040056e+01  2.0442414702393645e+01  2.0447367301254094e+01  2.0451820928808299e+01  2.0455647906805435e+01  2.0458734596906794e+01  2.0460985661960606e+01  2.0462330240962896e+01  2.0462743218524245e+01  2.0389654279224409e+01  2.0390066898247014e+01  2.0391270442297930e+01  2.0393242362644258e+01  2.0395944864732709e+01  2.0399324673315078e+01  2.0403313238700161e+01  2.0407827165038054e+01  2.0412768913466877e+01  2.0418027896491768e+01  2.0423482074597914e+01  2.0429000138294938e+01  2.0434444317595645e+01  2.0439673808377542e+01  2.0444548745360599e+01  2.0448934595078306e+01  2.0452706814454331e+01  2.0455755687633626e+01  2.0457991593448277e+01  2.0459351952837405e+01  2.0459812662849991e+01  2.0386602803097372e+01  2.0387011083783651e+01  2.0388188333722095e+01  2.0390111980278075e+01  2.0392745641565210e+01  2.0396037942376090e+01  2.0399922496499720e+01  2.0404318333830499e+01  2.0409130636105726e+01  2.0414251848565570e+01  2.0419563269553819e+01  2.0424937202031114e+01  2.0430239712979215e+01  2.0435333997132865e+01  2.0440084285918005e+01  2.0444360190266824e+01  2.0448041334228932e+01  2.0451022155183789e+01  2.0453216860361835e+01  2.0454564734490734e+01  2.0455035752879095e+01  2.0382645809886260e+01  2.0383044366360565e+01  2.0384184306669113e+01  2.0386043511441180e+01  2.0388586967136821e+01  2.0391765328270857e+01  2.0395514743638884e+01  2.0399757231585390e+01  2.0404401405460920e+01  2.0409343576289750e+01  2.0414469315921025e+01  2.0419655557526593e+01  2.0424773278352387e+01  2.0429690763592639e+01  2.0434277396110922e+01  2.0438407861180011e+01  2.0441966607374194e+01  2.0444852375906706e+01  2.0446982618243528e+01  2.0448297693653775e+01  2.0448764815516085e+01  2.0378053079218923e+01  2.0378437969117428e+01  2.0379532438130866e+01  2.0381315246107210e+01  2.0383752930340236e+01  2.0386798344304687e+01  2.0390390425657706e+01  2.0394454540186690e+01  2.0398903192205669e+01  2.0403637106929629e+01  2.0408546753042806e+01  2.0413514374404606e+01  2.0418416572860608e+01  2.0423127441164528e+01  2.0427522191842147e+01  2.0431481169482879e+01  2.0434894076211627e+01  2.0437664192404945e+01  2.0439712364970003e+01  2.0440980654164694e+01  2.0441435906281235e+01  2.0373138249548916e+01  2.0373506607799996e+01  2.0374550561284718e+01  2.0376250044984893e+01  2.0378573329441323e+01  2.0381475577724423e+01  2.0384898620224437e+01  2.0388771307036215e+01  2.0393010218792586e+01  2.0397520729462048e+01  2.0402198480991924e+01  2.0406931333984982e+01  2.0411601834415027e+01  2.0416090195742097e+01  2.0420277744354866e+01  2.0424050718507150e+01  2.0427304252083626e+01  2.0429946325380289e+01  2.0431901460971172e+01  2.0433114093672518e+01  2.0433552004924604e+01  2.0368237272933406e+01  2.0368587273316813e+01  2.0369578875602905e+01  2.0371193493438646e+01  2.0373401268073501e+01  2.0376159657675011e+01  2.0379413295516933e+01  2.0383094406896920e+01  2.0387123545994466e+01  2.0391410645069861e+01  2.0395856437827593e+01  2.0400354322060885e+01  2.0404792702051090e+01  2.0409057811666841e+01  2.0413036970246360e+01  2.0416622169482736e+01  2.0419713836068375e+01  2.0422224572348750e+01  2.0424082677276921e+01  2.0425235387187985e+01  2.0425652176380318e+01  2.0363685687202921e+01  2.0364016404475887e+01  2.0364956807675444e+01  2.0366490320909943e+01  2.0368589032859312e+01  2.0371212484828067e+01  2.0374307780422971e+01  2.0377810147306231e+01  2.0381643723853820e+01  2.0385722595535981e+01  2.0389952162181118e+01  2.0394230908778702e+01  2.0398452622479095e+01  2.0402509058464382e+01  2.0406293011448415e+01  2.0409701701933752e+01  2.0412640343669175e+01  2.0415025732377817e+01  2.0416789709191018e+01  2.0417882456298180e+01  2.0418275785239601e+01  2.0359796413815761e+01  2.0360107177292758e+01  2.0360999786635386e+01  2.0362460758791510e+01  2.0364463983092431e+01  2.0366970521194592e+01  2.0369929312298414e+01  2.0373277950801416e+01  2.0376943510668532e+01  2.0380843547427641e+01  2.0384887396833172e+01  2.0388977851708383e+01  2.0393013259351797e+01  2.0396890041008117e+01  2.0400505591817570e+01  2.0403761478403421e+01  2.0406566822290454e+01  2.0408841761597291e+01  2.0410520957018853e+01  2.0411557274749594e+01  2.0411925762046909e+01  2.0356840374416251e+01  2.0357128226512081e+01  2.0357977168775165e+01  2.0359378245876854e+01  2.0361305982501321e+01  2.0363721733198801e+01  2.0366575300729654e+01  2.0369805800753468e+01  2.0373342403250991e+01  2.0377105238899794e+01  2.0381006608417543e+01  2.0384952567562170e+01  2.0388844919930524e+01  2.0392583611691531e+01  2.0396069481758907e+01  2.0399207281555821e+01  2.0401908855041651e+01  2.0404096402291835e+01  2.0405705947014738e+01  2.0406691717107257e+01  2.0407033010688551e+01  2.0355034536160122e+01  2.0355283583026996e+01  2.0356091615762470e+01  2.0357449421335808e+01  2.0359327492521423e+01  2.0361685316802408e+01  2.0364472429310435e+01  2.0367628585857950e+01  2.0371084144630522e+01  2.0374760797339199e+01  2.0378572679035400e+01  2.0382427877423389e+01  2.0386230350121860e+01  2.0389882231544778e+01  2.0393286472427377e+01  2.0396349708827177e+01  2.0398985211790361e+01  2.0401115754374615e+01  2.0402676402524232e+01  2.0403618368634930e+01  2.0403920995951619e+01  2.0354553647005499e+01  2.0354686364011481e+01  2.0355458748560778e+01  2.0356796864030649e+01  2.0358656723887485e+01  2.0360994391046709e+01  2.0363758672339689e+01  2.0366889382185771e+01  2.0370317241244123e+01  2.0373964464337966e+01  2.0377745814581544e+01  2.0381570079729887e+01  2.0385341959908477e+01  2.0388964340750015e+01  2.0392340888427523e+01  2.0395378848353921e+01  2.0397991846464560e+01  2.0400102322725260e+01  2.0401642715988849e+01  2.0402552504405850e+01  2.0402758959918415e+01  2.0392282205832071e+01  2.0392653103011561e+01  2.0393859124974568e+01  2.0395862164588664e+01  2.0398617670136016e+01  2.0402068388481382e+01  2.0406142825857042e+01  2.0410754984416933e+01  2.0415804747461500e+01  2.0421178825877117e+01  2.0426752296385786e