<?xml version="1.0"?>
<VTKFile type="UnstructuredGrid"  version="0.1"  >
<UnstructuredGrid>
<Piece  NumberOfPoints="1638" NumberOfCells="7200">
<Points>
<DataArray  type="Float64"  NumberOfComponents="3"  format="ascii">0 0 0  1 0 0  2 0 0  3 0 0  4 0 0  5 0 0  6 0 0  7 0 0  8 0 0  9 0 0  10 0 0  11 0 0  12 0 0  13 0 0  14 0 0  15 0 0  16 0 0  17 0 0  18 0 0  19 0 0  20 0 0  0 1 0  1 1 0  2 1 0  3 1 0  4 1 0  5 1 0  6 1 0  7 1 0  8 1 0  9 1 0  10 1 0  11 1 0  12 1 0  13 1 0  14 1 0  15 1 0  16 1 0  17 1 0  18 1 0  19 1 0  20 1 0  0 2 0  1 2 0  2 2 0  3 2 0  4 2 0  5 2 0  6 2 0  7 2 0  8 2 0  9 2 0  10 2 0  11 2 0  12 2 0  13 2 0  14 2 0  15 2 0  16 2 0  17 2 0  18 2 0  19 2 0  20 2 0  0 3 0  1 3 0  2 3 0  3 3 0  4 3 0  5 3 0  6 3 0  7 3 0  8 3 0  9 3 0  10 3 0  11 3 0  12 3 0  13 3 0  14 3 0  15 3 0  16 3 0  17 3 0  18 3 0  19 3 0  20 3 0  0 4 0  1 4 0  2 4 0  3 4 0  4 4 0  5 4 0  6 4 0  7 4 0  8 4 0  9 4 0  10 4 0  11 4 0  12 4 0  13 4 0  14 4 0  15 4 0  16 4 0  17 4 0  18 4 0  19 4 0  20 4 0  0 5 0  1 5 0  2 5 0  3 5 0  4 5 0  5 5 0  6 5 0  7 5 0  8 5 0  9 5 0  10 5 0  11 5 0  12 5 0  13 5 0  14 5 0  15 5 0  16 5 0  17 5 0  18 5 0  19 5 0  20 5 0  0 6 0  1 6 0  2 6 0  3 6 0  4 6 0  5 6 0  6 6 0  7 6 0  8 6 0  9 6 0  10 6 0  11 6 0  12 6 0  13 6 0  14 6 0  15 6 0  16 6 0  17 6 0  18 6 0  19 6 0  20 6 0  0 7 0  1 7 0  2 7 0  3 7 0  4 7 0  5 7 0  6 7 0  7 7 0  8 7 0  9 7 0  10 7 0  11 7 0  12 7 0  13 7 0  14 7 0  15 7 0  16 7 0  17 7 0  18 7 0  19 7 0  20 7 0  0 8 0  1 8 0  2 8 0  3 8 0  4 8 0  5 8 0  6 8 0  7 8 0  8 8 0  9 8 0  10 8 0  11 8 0  12 8 0  13 8 0  14 8 0  15 8 0  16 8 0  17 8 0  18 8 0  19 8 0  20 8 0  0 9 0  1 9 0  2 9 0  3 9 0  4 9 0  5 9 0  6 9 0  7 9 0  8 9 0  9 9 0  10 9 0  11 9 0  12 9 0  13 9 0  14 9 0  15 9 0  16 9 0  17 9 0  18 9 0  19 9 0  20 9 0  0 10 0  1 10 0  2 10 0  3 10 0  4 10 0  5 10 0  6 10 0  7 10 0  8 10 0  9 10 0  10 10 0  11 10 0  12 10 0  13 10 0  14 10 0  15 10 0  16 10 0  17 10 0  18 10 0  19 10 0  20 10 0  0 11 0  1 11 0  2 11 0  3 11 0  4 11 0  5 11 0  6 11 0  7 11 0  8 11 0  9 11 0  10 11 0  11 11 0  12 11 0  13 11 0  14 11 0  15 11 0  16 11 0  17 11 0  18 11 0  19 11 0  20 11 0  0 12 0  1 12 0  2 12 0  3 12 0  4 12 0  5 12 0  6 12 0  7 12 0  8 12 0  9 12 0  10 12 0  11 12 0  12 12 0  13 12 0  14 12 0  15 12 0  16 12 0  17 12 0  18 12 0  19 12 0  20 12 0  0 0 1  1 0 1  2 0 1  3 0 1  4 0 1  5 0 1  6 0 1  7 0 1  8 0 1  9 0 1  10 0 1  11 0 1  12 0 1  13 0 1  14 0 1  15 0 1  16 0 1  17 0 1  18 0 1  19 0 1  20 0 1  0 1 1  1 1 1  2 1 1  3 1 1  4 1 1  5 1 1  6 1 1  7 1 1  8 1 1  9 1 1  10 1 1  11 1 1  12 1 1  13 1 1  14 1 1  15 1 1  16 1 1  17 1 1  18 1 1  19 1 1  20 1 1  0 2 1  1 2 1  2 2 1  3 2 1  4 2 1  5 2 1  6 2 1  7 2 1  8 2 1  9 2 1  10 2 1  11 2 1  12 2 1  13 2 1  14 2 1  15 2 1  16 2 1  17 2 1  18 2 1  19 2 1  20 2 1  0 3 1  1 3 1  2 3 1  3 3 1  4 3 1  5 3 1  6 3 1  7 3 1  8 3 1  9 3 1  10 3 1  11 3 1  12 3 1  13 3 1  14 3 1  15 3 1  16 3 1  17 3 1  18 3 1  19 3 1  20 3 1  0 4 1  1 4 1  2 4 1  3 4 1  4 4 1  5 4 1  6 4 1  7 4 1  8 4 1  9 4 1  10 4 1  11 4 1  12 4 1  13 4 1  14 4 1  15 4 1  16 4 1  17 4 1  18 4 1  19 4 1  20 4 1  0 5 1  1 5 1  2 5 1  3 5 1  4 5 1  5 5 1  6 5 1  7 5 1  8 5 1  9 5 1  10 5 1  11 5 1  12 5 1  13 5 1  14 5 1  15 5 1  16 5 1  17 5 1  18 5 1  19 5 1  20 5 1  0 6 1  1 6 1  2 6 1  3 6 1  4 6 1  5 6 1  6 6 1  7 6 1  8 6 1  9 6 1  10 6 1  11 6 1  12 6 1  13 6 1  14 6 1  15 6 1  16 6 1  17 6 1  18 6 1  19 6 1  20 6 1  0 7 1  1 7 1  2 7 1  3 7 1  4 7 1  5 7 1  6 7 1  7 7 1  8 7 1  9 7 1  10 7 1  11 7 1  12 7 1  13 7 1  14 7 1  15 7 1  16 7 1  17 7 1  18 7 1  19 7 1  20 7 1  0 8 1  1 8 1  2 8 1  3 8 1  4 8 1  5 8 1  6 8 1  7 8 1  8 8 1  9 8 1  10 8 1  11 8 1  12 8 1  13 8 1  14 8 1  15 8 1  16 8 1  17 8 1  18 8 1  19 8 1  20 8 1  0 9 1  1 9 1  2 9 1  3 9 1  4 9 1  5 9 1  6 9 1  7 9 1  8 9 1  9 9 1  10 9 1  11 9 1  12 9 1  13 9 1  14 9 1  15 9 1  16 9 1  17 9 1  18 9 1  19 9 1  20 9 1  0 10 1  1 10 1  2 10 1  3 10 1  4 10 1  5 10 1  6 10 1  7 10 1  8 10 1  9 10 1  10 10 1  11 10 1  12 10 1  13 10 1  14 10 1  15 10 1  16 10 1  17 10 1  18 10 1  19 10 1  20 10 1  0 11 1  1 11 1  2 11 1  3 11 1  4 11 1  5 11 1  6 11 1  7 11 1  8 11 1  9 11 1  10 11 1  11 11 1  12 11 1  13 11 1  14 11 1  15 11 1  16 11 1  17 11 1  18 11 1  19 11 1  20 11 1  0 12 1  1 12 1  2 12 1  3 12 1  4 12 1  5 12 1  6 12 1  7 12 1  8 12 1  9 12 1  10 12 1  11 12 1  12 12 1  13 12 1  14 12 1  15 12 1  16 12 1  17 12 1  18 12 1  19 12 1  20 12 1  0 0 2  1 0 2  2 0 2  3 0 2  4 0 2  5 0 2  6 0 2  7 0 2  8 0 2  9 0 2  10 0 2  11 0 2  12 0 2  13 0 2  14 0 2  15 0 2  16 0 2  17 0 2  18 0 2  19 0 2  20 0 2  0 1 2  1 1 2  2 1 2  3 1 2  4 1 2  5 1 2  6 1 2  7 1 2  8 1 2  9 1 2  10 1 2  11 1 2  12 1 2  13 1 2  14 1 2  15 1 2  16 1 2  17 1 2  18 1 2  19 1 2  20 1 2  0 2 2  1 2 2  2 2 2  3 2 2  4 2 2  5 2 2  6 2 2  7 2 2  8 2 2  9 2 2  10 2 2  11 2 2  12 2 2  13 2 2  14 2 2  15 2 2  16 2 2  17 2 2  18 2 2  19 2 2  20 2 2  0 3 2  1 3 2  2 3 2  3 3 2  4 3 2  5 3 2  6 3 2  7 3 2  8 3 2  9 3 2  10 3 2  11 3 2  12 3 2  13 3 2  14 3 2  15 3 2  16 3 2  17 3 2  18 3 2  19 3 2  20 3 2  0 4 2  1 4 2  2 4 2  3 4 2  4 4 2  5 4 2  6 4 2  7 4 2  8 4 2  9 4 2  10 4 2  11 4 2  12 4 2  13 4 2  14 4 2  15 4 2  16 4 2  17 4 2  18 4 2  19 4 2  20 4 2  0 5 2  1 5 2  2 5 2  3 5 2  4 5 2  5 5 2  6 5 2  7 5 2  8 5 2  9 5 2  10 5 2  11 5 2  12 5 2  13 5 2  14 5 2  15 5 2  16 5 2  17 5 2  18 5 2  19 5 2  20 5 2  0 6 2  1 6 2  2 6 2  3 6 2  4 6 2  5 6 2  6 6 2  7 6 2  8 6 2  9 6 2  10 6 2  11 6 2  12 6 2  13 6 2  14 6 2  15 6 2  16 6 2  17 6 2  18 6 2  19 6 2  20 6 2  0 7 2  1 7 2  2 7 2  3 7 2  4 7 2  5 7 2  6 7 2  7 7 2  8 7 2  9 7 2  10 7 2  11 7 2  12 7 2  13 7 2  14 7 2  15 7 2  16 7 2  17 7 2  18 7 2  19 7 2  20 7 2  0 8 2  1 8 2  2 8 2  3 8 2  4 8 2  5 8 2  6 8 2  7 8 2  8 8 2  9 8 2  10 8 2  11 8 2  12 8 2  13 8 2  14 8 2  15 8 2  16 8 2  17 8 2  18 8 2  19 8 2  20 8 2  0 9 2  1 9 2  2 9 2  3 9 2  4 9 2  5 9 2  6 9 2  7 9 2  8 9 2  9 9 2  10 9 2  11 9 2  12 9 2  13 9 2  14 9 2  15 9 2  16 9 2  17 9 2  18 9 2  19 9 2  20 9 2  0 10 2  1 10 2  2 10 2  3 10 2  4 10 2  5 10 2  6 10 2  7 10 2  8 10 2  9 10 2  10 10 2  11 10 2  12 10 2  13 10 2  14 10 2  15 10 2  16 10 2  17 10 2  18 10 2  19 10 2  20 10 2  0 11 2  1 11 2  2 11 2  3 11 2  4 11 2  5 11 2  6 11 2  7 11 2  8 11 2  9 11 2  10 11 2  11 11 2  12 11 2  13 11 2  14 11 2  15 11 2  16 11 2  17 11 2  18 11 2  19 11 2  20 11 2  0 12 2  1 12 2  2 12 2  3 12 2  4 12 2  5 12 2  6 12 2  7 12 2  8 12 2  9 12 2  10 12 2  11 12 2  12 12 2  13 12 2  14 12 2  15 12 2  16 12 2  17 12 2  18 12 2  19 12 2  20 12 2  0 0 3  1 0 3  2 0 3  3 0 3  4 0 3  5 0 3  6 0 3  7 0 3  8 0 3  9 0 3  10 0 3  11 0 3  12 0 3  13 0 3  14 0 3  15 0 3  16 0 3  17 0 3  18 0 3  19 0 3  20 0 3  0 1 3  1 1 3  2 1 3  3 1 3  4 1 3  5 1 3  6 1 3  7 1 3  8 1 3  9 1 3  10 1 3  11 1 3  12 1 3  13 1 3  14 1 3  15 1 3  16 1 3  17 1 3  18 1 3  19 1 3  20 1 3  0 2 3  1 2 3  2 2 3  3 2 3  4 2 3  5 2 3  6 2 3  7 2 3  8 2 3  9 2 3  10 2 3  11 2 3  12 2 3  13 2 3  14 2 3  15 2 3  16 2 3  17 2 3  18 2 3  19 2 3  20 2 3  0 3 3  1 3 3  2 3 3  3 3 3  4 3 3  5 3 3  6 3 3  7 3 3  8 3 3  9 3 3  10 3 3  11 3 3  12 3 3  13 3 3  14 3 3  15 3 3  16 3 3  17 3 3  18 3 3  19 3 3  20 3 3  0 4 3  1 4 3  2 4 3  3 4 3  4 4 3  5 4 3  6 4 3  7 4 3  8 4 3  9 4 3  10 4 3  11 4 3  12 4 3  13 4 3  14 4 3  15 4 3  16 4 3  17 4 3  18 4 3  19 4 3  20 4 3  0 5 3  1 5 3  2 5 3  3 5 3  4 5 3  5 5 3  6 5 3  7 5 3  8 5 3  9 5 3  10 5 3  11 5 3  12 5 3  13 5 3  14 5 3  15 5 3  16 5 3  17 5 3  18 5 3  19 5 3  20 5 3  0 6 3  1 6 3  2 6 3  3 6 3  4 6 3  5 6 3  6 6 3  7 6 3  8 6 3  9 6 3  10 6 3  11 6 3  12 6 3  13 6 3  14 6 3  15 6 3  16 6 3  17 6 3  18 6 3  19 6 3  20 6 3  0 7 3  1 7 3  2 7 3  3 7 3  4 7 3  5 7 3  6 7 3  7 7 3  8 7 3  9 7 3  10 7 3  11 7 3  12 7 3  13 7 3  14 7 3  15 7 3  16 7 3  17 7 3  18 7 3  19 7 3  20 7 3  0 8 3  1 8 3  2 8 3  3 8 3  4 8 3  5 8 3  6 8 3  7 8 3  8 8 3  9 8 3  10 8 3  11 8 3  12 8 3  13 8 3  14 8 3  15 8 3  16 8 3  17 8 3  18 8 3  19 8 3  20 8 3  0 9 3  1 9 3  2 9 3  3 9 3  4 9 3  5 9 3  6 9 3  7 9 3  8 9 3  9 9 3  10 9 3  11 9 3  12 9 3  13 9 3  14 9 3  15 9 3  16 9 3  17 9 3  18 9 3  19 9 3  20 9 3  0 10 3  1 10 3  2 10 3  3 10 3  4 10 3  5 10 3  6 10 3  7 10 3  8 10 3  9 10 3  10 10 3  11 10 3  12 10 3  13 10 3  14 10 3  15 10 3  16 10 3  17 10 3  18 10 3  19 10 3  20 10 3  0 11 3  1 11 3  2 11 3  3 11 3  4 11 3  5 11 3  6 11 3  7 11 3  8 11 3  9 11 3  10 11 3  11 11 3  12 11 3  13 11 3  14 11 3  15 11 3  16 11 3  17 11 3  18 11 3  19 11 3  20 11 3  0 12 3  1 12 3  2 12 3  3 12 3  4 12 3  5 12 3  6 12 3  7 12 3  8 12 3  9 12 3  10 12 3  11 12 3  12 12 3  13 12 3  14 12 3  15 12 3  16 12 3  17 12 3  18 12 3  19 12 3  20 12 3  0 0 4  1 0 4  2 0 4  3 0 4  4 0 4  5 0 4  6 0 4  7 0 4  8 0 4  9 0 4  10 0 4  11 0 4  12 0 4  13 0 4  14 0 4  15 0 4  16 0 4  17 0 4  18 0 4  19 0 4  20 0 4  0 1 4  1 1 4  2 1 4  3 1 4  4 1 4  5 1 4  6 1 4  7 1 4  8 1 4  9 1 4  10 1 4  11 1 4  12 1 4  13 1 4  14 1 4  15 1 4  16 1 4  17 1 4  18 1 4  19 1 4  20 1 4  0 2 4  1 2 4  2 2 4  3 2 4  4 2 4  5 2 4  6 2 4  7 2 4  8 2 4  9 2 4  10 2 4  11 2 4  12 2 4  13 2 4  14 2 4  15 2 4  16 2 4  17 2 4  18 2 4  19 2 4  20 2 4  0 3 4  1 3 4  2 3 4  3 3 4  4 3 4  5 3 4  6 3 4  7 3 4  8 3 4  9 3 4  10 3 4  11 3 4  12 3 4  13 3 4  14 3 4  15 3 4  16 3 4  17 3 4  18 3 4  19 3 4  20 3 4  0 4 4  1 4 4  2 4 4  3 4 4  4 4 4  5 4 4  6 4 4  7 4 4  8 4 4  9 4 4  10 4 4  11 4 4  12 4 4  13 4 4  14 4 4  15 4 4  16 4 4  17 4 4  18 4 4  19 4 4  20 4 4  0 5 4  1 5 4  2 5 4  3 5 4  4 5 4  5 5 4  6 5 4  7 5 4  8 5 4  9 5 4  10 5 4  11 5 4  12 5 4  13 5 4  14 5 4  15 5 4  16 5 4  17 5 4  18 5 4  19 5 4  20 5 4  0 6 4  1 6 4  2 6 4  3 6 4  4 6 4  5 6 4  6 6 4  7 6 4  8 6 4  9 6 4  10 6 4  11 6 4  12 6 4  13 6 4  14 6 4  15 6 4  16 6 4  17 6 4  18 6 4  19 6 4  20 6 4  0 7 4  1 7 4  2 7 4  3 7 4  4 7 4  5 7 4  6 7 4  7 7 4  8 7 4  9 7 4  10 7 4  11 7 4  12 7 4  13 7 4  14 7 4  15 7 4  16 7 4  17 7 4  18 7 4  19 7 4  20 7 4  0 8 4  1 8 4  2 8 4  3 8 4  4 8 4  5 8 4  6 8 4 
[...]
<PointData  Scalars="f_16"> 
<DataArray  type="Float64"  Name="f_16"  format="ascii">2.0394016788985816e+01  2.0394507153446003e+01  2.0395867723802866e+01  2.0398087097633489e+01  2.0401128057850954e+01  2.0404934734332183e+01  2.0409434000290219e+01  2.0414535847862197e+01  2.0420133795204261e+01  2.0426105677777453e+01  2.0432315029424796e+01  2.0438613202733315e+01  2.0444842320272897e+01  2.0450839068325287e+01  2.0456439236638975e+01  2.0461482761844753e+01  2.0465818808354186e+01  2.0469309962704909e+01  2.0471833354109357e+01  2.0473272467778461e+01  2.0473480687757462e+01  2.0393063903928137e+01  2.0393576173557538e+01  2.0394932896552085e+01  2.0397136604552088e+01  2.0400154001376414e+01  2.0403930711506668e+01  2.0408394545346916e+01  2.0413456358455736e+01  2.0419010597239669e+01  2.0424936132835146e+01  2.0431097651301425e+01  2.0437347767202134e+01  2.0443529959555779e+01  2.0449482349727933e+01  2.0455042241598992e+01  2.0460051226750657e+01  2.0464360528216929e+01  2.0467836140351825e+01  2.0470363350979966e+01  2.0471851058525111e+01  2.0472240434952969e+01  2.0390687885928983e+01  2.0391204487627743e+01  2.0392542824133042e+01  2.0394707326347490e+01  2.0397667271344861e+01  2.0401370440095302e+01  2.0405746624598425e+01  2.0410708734229754e+01  2.0416153477158755e+01  2.0421962255630358e+01  2.0428002572632330e+01  2.0434130131931756e+01  2.0440191739992578e+01  2.0446029041121879e+01  2.0451483028121608e+01  2.0456399176724467e+01  2.0460632972025540e+01  2.0464055556473639e+01  2.0466559201448465e+01  2.0468061637799828e+01  2.0468501982785735e+01  2.0387005741785444e+01  2.0387514962692766e+01  2.0388818141800741e+01  2.0390919397316001e+01  2.0393789540595790e+01  2.0397378565592309e+01  2.0401618864593217e+01  2.0406426325854572e+01  2.0411701059527534e+01  2.0417328323724142e+01  2.0423179931696058e+01  2.0429116319422636e+01  2.0434989384631898e+01  2.0440646135765220e+01  2.0445933106188892e+01  2.0450701400215134e+01  2.0454812150895144e+01  2.0458142067035560e+01  2.0460588444702083e+01  2.0462071493743309e+01  2.0462524109125411e+01  2.0382253265726408e+01  2.0382747230406142e+01  2.0384001004691193e+01  2.0386018337634056e+01  2.0388771396815962e+01  2.0392212509282999e+01  2.0396277098556219e+01  2.0400884706964131e+01  2.0405939716926863e+01  2.0411332279003076e+01  2.0416939698423459e+01  2.0422628446709133e+01  2.0428256905255839e+01  2.0433678880593913e+01  2.0438747850696181e+01  2.0443321810097196e+01  2.0447268476703197e+01  2.0450470467244749e+01  2.0452829639208698e+01  2.0454268211550971e+01  2.0454717328184941e+01  2.0376749109474261e+01  2.0377222167371894e+01  2.0378415994649639e+01  2.0380334163900880e+01  2.0382950324714511e+01  2.0386219306873070e+01  2.0390079855602142e+01  2.0394455596068788e+01  2.0399255744417076e+01  2.0404376025647249e+01  2.0409700023869103e+01  2.0415101117302381e+01  2.0420445098111578e+01  2.0425593514974675e+01  2.0430407698609478e+01  2.0434753337344077e+01  2.0438505355984528e+01  2.0441552679102095e+01  2.0443802052500214e+01  2.0445178655086099e+01  2.0445614993589658e+01  2.0370866960107296e+01  2.0371315214061049e+01  2.0372442705418429e+01  2.0374253027532436e+01  2.0376721476620446e+01  2.0379805495156976e+01  2.0383447263601202e+01  2.0387574649711382e+01  2.0392101926990453e+01  2.0396930683482946e+01  2.0401951127422507e+01  2.0407043931274320e+01  2.0412082708399691e+01  2.0416937158595527e+01  2.0421476844909328e+01  2.0425575473912833e+01  2.0429115439685791e+01  2.0431992224526443e+01  2.0434117869713500e+01  2.0435421409571777e+01  2.0435838379915186e+01  2.0365008221342475e+01  2.0365429390551835e+01  2.0366488435545261e+01  2.0368189263969288e+01  2.0370508950701282e+01  2.0373407518370033e+01  2.0376830466654887e+01  2.0380709768090913e+01  2.0384964621983301e+01  2.0389502360178824e+01  2.0394219703708067e+01  2.0399004507479038e+01  2.0403738084169284e+01  2.0408298143381828e+01  2.0412562313223944e+01  2.0416412128351961e+01  2.0419737266540416e+01  2.0422439663222882e+01  2.0424436778025829e+01  2.0425662027121497e+01  2.0426054880838429e+01  2.0359574465419723e+01  2.0359967615163121e+01  2.0360960102153804e+01  2.0362556732667841e+01  2.0364736420031452e+01  2.0367461502823751e+01  2.0370680397034384e+01  2.0374328724551049e+01  2.0378330126317223e+01  2.0382597163859423e+01  2.0387032520175062e+01  2.0391530640310215e+01  2.0395979901725742e+01  2.0400265350543268e+01  2.0404271976194266e+01  2.0407888423779294e+01  2.0411010958132088e+01  2.0413547367646633e+01  2.0415420176034072e+01  2.0416567299585484e+01  2.0416932828893398e+01  2.0354941213097131e+01  2.0355305815807199e+01  2.0356236748954732e+01  2.0357740814083773e+01  2.0359798531950055e+01  2.0362373884391559e+01  2.0365417449082074e+01  2.0368867728284840e+01  2.0372652001834716e+01  2.0376687196894775e+01  2.0380881017277417e+01  2.0385133477253731e+01  2.0389338926277038e+01  2.0393388597418365e+01  2.0397173653543653e+01  2.0400588641575315e+01  2.0403535199612033e+01  2.0405925780273098e+01  2.0407686929487536e+01  2.0408760584123275e+01  2.0409096401530864e+01  2.0351436131343554e+01  2.0351768899537738e+01  2.0352644717635187e+01  2.0354073368560673e+01  2.0356035540770257e+01  2.0358495445970849e+01  2.0361404691448371e+01  2.0364703644113018e+01  2.0368322183095334e+01  2.0372180466725496e+01  2.0376189965866288e+01  2.0380254893803151e+01  2.0384274104780328e+01  2.0388143483796455e+01  2.0391758794965323e+01  2.0395018894796589e+01  2.0397829158133504e+01  2.0400104918743537e+01  2.0401774665541748e+01  2.0402782276173035e+01  2.0403083800337324e+01  2.0349328500622956e+01  2.0349612239064200e+01  2.0350439167504003e+01  2.0351815176590971e+01  2.0353715976192831e+01  2.0356103677509836e+01  2.0358929644733323e+01  2.0362135051763840e+01  2.0365651240457385e+01  2.0369400300298775e+01  2.0373295995614512e+01  2.0377245111660752e+01  2.0381149264160833e+01  2.0384907179804550e+01  2.0388417401854912e+01  2.0391581304918301e+01  2.0394306213400036e+01  2.0396508295729099e+01  2.0398114726449030e+01  2.0399064558851773e+01  2.0399311196539035e+01  2.0348850498906152e+01  2.0349013714218593e+01  2.0349805116958343e+01  2.0351161059726902e+01  2.0353042780106929e+01  2.0355409084463894e+01  2.0358210647653948e+01  2.0361388716569820e+01  2.0364875011959406e+01  2.0368592174413440e+01  2.0372454639652506e+01  2.0376369953019317e+01  2.0380240549164991e+01  2.0383965996890041e+01  2.0387445656846964e+01  2.0390581621150051e+01  2.0393281674130883e+01  2.0395461700923693e+01  2.0397045762801682e+01  2.0397955608190408e+01  2.0398039698256731e+01  2.0393980089211631e+01  2.0394400574578725e+01  2.0395741020474077e+01  2.0397950935722022e+01  2.0400984715621181e+01  2.0404784512075935e+01  2.0409276705411134e+01  2.0414371209875796e+01  2.0419961621388946e+01  2.0425925932987170e+01  2.0432127886185615e+01  2.0438419075088877e+01  2.0444641886877299e+01  2.0450633290039853e+01  2.0456229378912589e+01  2.0461270446320459e+01  2.0465606155635207e+01  2.0469099983185128e+01  2.0471630893327585e+01  2.0473085261112637e+01  2.0473307822608849e+01  2.0393107362133097e+01  2.0393566051213099e+01  2.0394906543573530e+01  2.0397103187219667e+01  2.0400116063677725e+01  2.0403889099186188e+01  2.0408349618081260e+01  2.0413408340005756e+01  2.0418959705134906e+01  2.0424882640483201e+01  2.0431041922861468e+01  2.0437290277648550e+01  2.0443471305113835e+01  2.0449423253004031e+01  2.0454983558596041e+01  2.0459993971667583e+01  2.0464305958297722e+01  2.0467786040541402e+01  2.0470321093855279e+01  2.0471826308962591e+01  2.0472274372153507e+01  2.0390759804441153e+01  2.0391224125077951e+01  2.0392547450431369e+01  2.0394705858634435e+01  2.0397662295278636e+01  2.0401362946641473e+01  2.0405737136567559e+01  2.0410697625583602e+01  2.0416141089444686e+01  2.0421948952168542e+01  2.0427988767324472e+01  2.0434116304204100e+01  2.0440178440788909e+01  2.0446016893985398e+01  2.0451472731884735e+01  2.0456391524592018e+01  2.0460628930262434e+01  2.0464056563889219e+01  2.0466568401980087e+01  2.0468089486933806e+01  2.0468593515093673e+01  2.0387089681955356e+01  2.0387547720387268e+01  2.0388836622924483e+01  2.0390932411823574e+01  2.0393799681182056e+01  2.0397386874717490e+01  2.0401625927614468e+01  2.0406432574703512e+01  2.0411706880909438e+01  2.0417334108105948e+01  2.0423186098351305e+01  2.0429123328518465e+01  2.0434997741125208e+01  2.0440656389098379e+01  2.0445945852281131e+01  2.0450717300760051e+01  2.0454832014766641e+01  2.0458167161281693e+01  2.0460621760468296e+01  2.0462123359487908e+01  2.0462638665464780e+01  2.0382342377232561e+01  2.0382787088526452e+01  2.0384027377907724e+01  2.0386039806807059e+01  2.0388790518687390e+01  2.0392230337693377e+01  2.0396294240940883e+01  2.0400901615122397e+01  2.0405956788748451e+01  2.0411349903374131e+01  2.0416958277458995e+01  2.0422648405963013e+01  2.0428278696593694e+01  2.0433702981714266e+01  2.0438774767803082e+01  2.0443352098718059e+01  2.0447302825066785e+01  2.0450510006080506e+01  2.0452877178478094e+01  2.0454333652028406e+01  2.0454843011182653e+01  2.0376839258898983e+01  2.0377265567221386e+01  2.0378446802340882e+01  2.0380360613251195e+01  2.0382974892410992e+01  2.0386243027849662e+01  2.0390103332157583e+01  2.0394479274635923e+01  2.0399280011288411e+01  2.0404401248450537e+01  2.0409726571668504e+01  2.0415129369650995e+01  2.0420475447653502e+01  2.0425626367531592e+01  2.0430443477124051e+01  2.0434792504235123e+01  2.0438548496632379e+01  2.0441600802889774e+01  2.0443857777420458e+01  2.0445251360257434e+01  2.0445744914240191e+01  2.0370954907932735e+01  2.0371359222575251e+01  2.0372475064962448e+01  2.0374281544437245e+01  2.0376748509736085e+01  2.0379832033662527e+01  2.0383473881403415e+01  2.0387601766877154e+01  2.0392129899614833e+01  2.0396959842253931e+01  2.0401981796219058e+01  2.0407076435720406e+01  2.0412117378834605e+01  2.0416974331270971e+01  2.0421516867516832e+01  2.0425618729270923e+01  2.0429162428019666e+01  2.0432043852206959e+01  2.0434176573986509e+01  2.0435496035249628e+01  2.0435966965446489e+01  2.0365091080667369e+01  2.0365471228094467e+01  2.0366519560629047e+01  2.0368217004891545e+01  2.0370535517497576e+01  2.0373433830430852e+01  2.0376857048709049e+01  2.0380736995491617e+01  2.0384992804902392e+01  2.0389531779790953e+01  2.0394250629922965e+01  2.0399037207636525e+01  2.0403772826954775e+01  2.0408335201586457e+01  2.0412601971105126e+01  2.0416454706585920e+01  2.0419783202776607e+01  2.0422489787559410e+01  2.0424493377443099e+01  2.0425733451490132e+01  2.0426177050883773e+01  2.0359649382576013e+01  2.0360004425533884e+01  2.0360987086890020e+01  2.0362580704311515e+01  2.0364759413224675e+01  2.0367484345957969e+01  2.0370703547284542e+01  2.0374352496567916e+01  2.0378354771143965e+01  2.0382622903402520e+01  2.0387059564776166e+01  2.0391559198224460e+01  2.0396010184508537e+01  2.0400297577756994e+01  2.0404306384850464e+01  2.0407925294748832e+01  2.0411050695371969e+01  2.0413590761871237e+01  2.0415469414639894e+01  2.0416630326765571e+01  2.0417043693604800e+01  2.0355004719942386e+01  2.0355334189265434e+01  2.0356256107113776e+01  2.0357757401443994e+01  2.0359814183465300e+01  2.0362389319187297e+01  2.0365433040015116e+01  2.0368883714286351e+01  2.0372668562662934e+01  2.0376704486984135e+01  2.0380899184057906e+01  2.0385152672108955e+01  2.0389359311877598e+01  2.0393410354640729e+01  2.0397196993131679e+01  2.0400613832304742e+01  2.0403562647510999e+01  2.0405956285445406e+01  2.0407722658177573e+01  2.0408809236966828e+01  2.0409190593591994e+01  2.0351482066076059e+01  2.0351783084514988e+01  2.0352650535941645e+01  2.0354076420416416e+01  2.0356037449718020e+01  2.0358496805552150e+01  2.0361405768352135e+01  2.0364704579553262e+01  2.0368323067134437e+01  2.0372181373797083e+01  2.0376190975318224e+01  2.0380256103277887e+01  2.0384275639983148e+01  2.0388145507656020e+01  2.0391761521099223e+01  2.0395022616811001e+01  2.0397834329380700e+01  2.0400112410505386e+01  2.0401786744090757e+01  2.0402806739418597e+01  2.0403152735153864e+01  2.0349340841408960e+01  2.0349596436124965e+01  2.0350414818111524e+01  2.0351787412755392e+01  2.0353686271326215e+01  2.0356072464708397e+01  2.0358897018685589e+01  2.0362100987992839e+01  2.0365615680913390e+01  2.0369363196147841e+01  2.0373257333281476e+01  2.0377204930683508e+01  2.0381107670396570e+01  2.0384864356583495e+01  2.0388373623213926e+01  2.0391536961107583e+01  2.0394261881759707e+01  2.0396464991332021e+01  2.0398074950111639e+01  2.0399037032310606e+01  2.0399331487212713e+01  2.0348779719179920e+01  2.0348905507873635e+01  2.0349683805063396e+01  2.0351033459570402e+01  2.0352910436316360e+01  2.0355272038836961e+01  2.0358068508746218e+01  2.0361240992231085e+01  2.0364721238085593e+01  2.0368431980814300e+01  2.0372287792062952e+01  2.0376196382809951e+01  2.0380060374274663e+01  2.0383779535189049e+01  2.0387253433073433e+01  2.0390384370506485e+01  2.0393080355532561e+01  2.0395257600491018e+01  2.0396841293510356e+01  2.0397760710945075e+01  2.0397925378344780e+01  2.0393957489382259e+01  2.0394360853531591e+01  2.0395687157879188e+01  2.0397887416226908e+01  2.0400914127720483e+01  2.0404708159628864e+01  2.0409195228669116e+01  2.0414284950936771e+01  2.0419870829573163e+01  2.0425830884135301e+01  2.0432028955429573e+01  2.0438316783920804e+01  2.0444536937243235e+01  2.0450526596583902e+01  2.0456122113786666e+01  2.0461164118689503e+01  2.0465502757578641e+01  2.0469002226126250e+01  2.0471542437333323e+01  2.0473010244178770e+01  2.0473247652011150e+01  2.0393110224528929e+01  2.0393553537097688e+01  2.0394880979953452e+01  2.0397068760023799e+01  2.0400075391826263e+01  2.0403843617305199e+01  2.0408300113355637e+01  2.0413355289944480e+01  2.0418903471798526e+01  2.0424823583338487e+01  2.0430980466638026e+01  2.0437226955190997e+01  2.0443406787665587e+01  2.0449358378687890e+01  2.0454919372688774e+01  2.0459931799284263e+01  2.0464247540585312e+01  2.0467733772659663e+01  2.0470278364554161e+01  2.0471797585140031e+01  2.0472261908873669e+01  2.0390785616974348e+01  2.0391235306442475e+01  2.0392546487883525e+01  2.0394696870006733e+01  2.0397647926632523e+01  2.0401344726617644e+01  2.0405715967231167e+01  2.0410674094515482e+01  2.0416115650587958e+01  2.0421922030690677e+01  2.0427960821807094e+01  2.0434087865001288e+01  2.0440150136538374e+01  2.0445989476742973e+01  2.0451447114193659e+01  2.0456368849405862e+01  2.0460610708918445e+01  2.0464044939922921e+01  2.0466566602554305e+01  2.0468102190089947e+01  2.0468623541101316e+01  2.0387130874346884e+01  2.0387574817780990e+01  2.0388852305570737e+01  2.0390940800509110e+01  2.0393803435698832e+01  2.0397387569976402e+01  2.0401624527808899e+01  2.0406429729093031e+01  2.0411703093639506e+01  2.0417329835783242e+01  2.0423181807131996e+01  2.0429119528708309e+01  2.0434995010882545e+01  2.0440655397527006e+01  2.0445947395236637e+01  2.0450722370959841e+01  2.0454841944277518e+01  2.0458183902374550e+01  2.0460648380203509e+01  2.0462164464340038e+01  2.0462697039493939e+01  2.0382392733888167e+01  2.0382823986312296e+01  2.0384053581753314e+01  2.0386059391935778e+01  2.0388806119858089e+01  2.0392243533721640e+01  2.0396306015556103e+01  2.0400912639839824e+01  2.0405967583329886e+01  2.0411360926989772e+01  2.0416969981383502e+01  2.0422661265191266e+01  2.0428293231629436e+01  2.0433719780635318e+01  2.0438794521851065e+01  2.0443375673126397e+01  2.0447331403697294e+01  2.0450545376296350e+01  2.0452922228765900e+01  2.0454392790039435e+01  2.0454918867761300e+01  2.0376893940223994e+01  2.0377307538154298e+01  2.0378478830348435e+01  2.0380386661943817e+01  2.0382997526086779e+01  2.0386263791052894e+01  2.0390123193342838e+01  2.0394498896005089e+01  2.0399299900498754e+01  2.0404421844030548e+01  2.0409748292011120e+01  2.0415152642379365e+01  2.0420500730255824e+01  2.0425654169100767e+01  2.0430474394144298e+01  2.0434827291627013e+01  2.0438588211557494e+01  2.0441647085113932e+01  2.0443913333537974e+01  2.0445320365136077e+01  2.0445829858443258e+01  2.0371009848515627e+01  2.0371402266312220e+01  2.0372508925633053e+01  2.0374310018201534e+01  2.0376774048695214e+01  2.0379856114138448e+01  2.0383497426871735e+01  2.0387625403863158e+01  2.0392154100828336e+01  2.0396985006812319e+01  2.0402008295620394e+01  2.0407104641677311e+01  2.0412147683438388e+01  2.0417007168949535e+01  2.0421552751219220e+01  2.0425658321176961e+01  2.0429206680472156e+01  2.0432094279208112e+01  2.0434235716205414e+01  2.0435567845860696e+01  2.0436053835271046e+01  2.0365142509977549e+01  2.0365511591273918e+01  2.0366551471733455e+01  2.0368244047116544e+01  2.0370559994518839e+01  2.0373457120500674e+01  2.0376880004480618e+01  2.0380760185209095e+01  2.0385016647151282e+01  2.0389556619132950e+01  2.0394276780589873e+01  2.0399064980574391e+01  2.0403802550179638e+01  2.0408367242870774e+01  2.0412636774820282e+01  2.0416492863931662e+01  2.0419825589079842e+01  2.0422537823433071e+01  2.0424549473075359e+01  2.0425801377786350e+01  2.0426259146573095e+01  2.0359693412371314e+01  2.0360038204809285e+01  2.0361013076950488e+01  2.0362602232324456e+01  2.0364778602281152e+01  2.0367502450254136e+01  2.0370721326100107e+01  2.0374370440149686e+01  2.0378373227550885e+01  2.0382642150409346e+01  2.0387079852193509e+01  2.0391580774968808e+01  2.0396033319823196e+01  2.0400322585149794e+01  2.0404333660011670e+01  2.0407955385740244e+01  2.0411084437000259e+01  2.0413629527775800e+01  2.0415515542462003e+01  2.0416687473063092e+01  2.0417114197756998e+01  2.0355036862483040e+01  2.0355356870592303e+01  2.0356271546262597e+01  2.0357768621355554e+01  2.0359823099790670e+01  2.0362397041180522e+01  2.0365440214111977e+01  2.0368890734831716e+01  2.0372675692261026e+01  2.0376711926150954e+01  2.0380907113406018e+01  2.0385161280392545e+01  2.0389368818755891e+01  2.0393421036339547e+01  2.0397209221889192e+01  2.0400628147411801e+01  2.0403579889073743e+01  2.0405977842732582e+01  2.0407750884426324e+01  2.0408847788823003e+01  2.0409241881618637e+01  2.0351496684801777e+01  2.0351788960631328e+01  2.0352649488277809e+01  2.0354071137516012e+01  2.0356029635489996e+01  2.0358487414201186e+01  2.0361395316907224e+01  2.0364693348237424e+01  2.0368311217253325e+01  2.0372169017860443e+01  2.0376178220865381e+01  2.0380243083023686e+01  2.0384262536751628e+01  2.0388132581997020e+01  2.0391749152293261e+01  2.0395011375217404e+01  2.0397825112382382e+01  2.0400106697415488e+01  2.0401787028121600e+01  2.0402816889006488e+01  2.0403175406544538e+01  2.0349331519937405e+01  2.0349578529995210e+01  2.0350389739410293e+01  2.0351757664690265e+01  2.0353653416836387e+01  2.0356037314138916e+01  2.0358859945611570e+01  2.0362062137843090e+01  2.0365575095067275e+01  2.0369320886725429e+01  2.0373213330834083e+01  2.0377159317633229e+01  2.0381060608597647e+01  2.0384816116639726e+01  2.0388324625975386e+01  2.0391487849404715e+01  2.0394213656853452e+01  2.0396419280781586e+01  2.0398034506804382e+01  2.0399006298463842e+01  2.0399314038662265e+01  2.0348747194531263e+01  2.0348861434473498e+01  2.0349631267280348e+01  2.0350975424124140e+01  2.0352848499457050e+01  2.0355206907564973e+01  2.0358000419498516e+01  2.0361169955011501e+01  2.0364647174601302e+01  2.0368354806524824e+01  2.0372207468705810e+01  2.0376112955402572e+01  2.0379974001070899e+01  2.0383690517882929e+01  2.0387162256949377e+01  2.0390291771266739e+01  2.0392987445404945e+01  2.0395166124016210e+01  2.0396754173074999e+01  2.0397683076733149e+01  2.0397863273574568e+01  2.0393938646592328e+01  2.0394333451526379e+01  2.0395648490342332e+01  2.0397839583600874e+01  2.0400859291656435e+01  2.0404647733836370e+01  2.0409130037287163e+01  2.0414215489460872e+01  2.0419797459702206e+01  2.0425753959983300e+01  2.0431948903418963e