<?xml version="1.0"?>
<VTKFile type="UnstructuredGrid"  version="0.1"  >
<UnstructuredGrid>
<Piece  NumberOfPoints="15540" NumberOfCells="30546">
<Points>
<DataArray  type="Float64"  NumberOfComponents="3"  format="ascii">0 0 0  -0.5 -0.5 0  0.5 -0.5 0  0.5 0 0  0.5 0.5 0  -0.5 0.5 0  -0.5 0.0001 0  -0.5 -0.0001 0  0.5 0.1 0  0.5 -0.1 0  -0.5 -0.1 0  -0.5 0.1 0  -0.4900000000000277 -0.5 0  -0.4800000000000555 -0.5 0  -0.4700000000000832 -0.5 0  -0.4600000000001109 -0.5 0  -0.4500000000001387 -0.5 0  -0.4400000000001664 -0.5 0  -0.4300000000001942 -0.5 0  -0.4200000000002219 -0.5 0  -0.4100000000002497 -0.5 0  -0.4000000000002774 -0.5 0  -0.3900000000003052 -0.5 0  -0.3800000000003328 -0.5 0  -0.3700000000003606 -0.5 0  -0.3600000000003883 -0.5 0  -0.3500000000004161 -0.5 0  -0.3400000000004438 -0.5 0  -0.3300000000004716 -0.5 0  -0.3200000000004993 -0.5 0  -0.3100000000005271 -0.5 0  -0.3000000000005548 -0.5 0  -0.2900000000005825 -0.5 0  -0.2800000000006103 -0.5 0  -0.2700000000006381 -0.5 0  -0.2600000000006658 -0.5 0  -0.2500000000006935 -0.5 0  -0.2400000000007212 -0.5 0  -0.230000000000749 -0.5 0  -0.2200000000007767 -0.5 0  -0.2100000000008044 -0.5 0  -0.2000000000008322 -0.5 0  -0.19000000000086 -0.5 0  -0.1800000000008877 -0.5 0  -0.1700000000009154 -0.5 0  -0.1600000000009431 -0.5 0  -0.1500000000009709 -0.5 0  -0.1400000000009986 -0.5 0  -0.1300000000010264 -0.5 0  -0.1200000000010541 -0.5 0  -0.1100000000010818 -0.5 0  -0.1000000000011096 -0.5 0  -0.09000000000113734 -0.5 0  -0.08000000000116503 -0.5 0  -0.07000000000119283 -0.5 0  -0.06000000000122058 -0.5 0  -0.05000000000124827 -0.5 0  -0.04000000000127607 -0.5 0  -0.03000000000130376 -0.5 0  -0.02000000000133151 -0.5 0  -0.01000000000135925 -0.5 0  -1.376121439022882e-12 -0.5 0  0.009999999998640763 -0.5 0  0.01999999999866864 -0.5 0  0.02999999999869629 -0.5 0  0.03999999999872406 -0.5 0  0.04999999999875182 -0.5 0  0.05999999999877947 -0.5 0  0.06999999999880724 -0.5 0  0.079999999998835 -0.5 0  0.08999999999886266 -0.5 0  0.09999999999889042 -0.5 0  0.1099999999989182 -0.5 0  0.1199999999989459 -0.5 0  0.1299999999989737 -0.5 0  0.1399999999990014 -0.5 0  0.1499999999990291 -0.5 0  0.1599999999990568 -0.5 0  0.1699999999990847 -0.5 0  0.1799999999991124 -0.5 0  0.1899999999991401 -0.5 0  0.1999999999991678 -0.5 0  0.2099999999991955 -0.5 0  0.2199999999992234 -0.5 0  0.2299999999992511 -0.5 0  0.2399999999992788 -0.5 0  0.2499999999993066 -0.5 0  0.2599999999993342 -0.5 0  0.269999999999362 -0.5 0  0.2799999999993897 -0.5 0  0.2899999999994175 -0.5 0  0.2999999999994452 -0.5 0  0.3099999999994729 -0.5 0  0.3199999999995007 -0.5 0  0.3299999999995284 -0.5 0  0.3399999999995562 -0.5 0  0.3499999999995839 -0.5 0  0.3599999999996116 -0.5 0  0.3699999999996393 -0.5 0  0.379999999999667 -0.5 0  0.3899999999996949 -0.5 0  0.3999999999997226 -0.5 0  0.4099999999997503 -0.5 0  0.419999999999778 -0.5 0  0.4299999999998058 -0.5 0  0.4399999999998336 -0.5 0  0.4499999999998613 -0.5 0  0.4599999999998891 -0.5 0  0.4699999999999167 -0.5 0  0.4799999999999445 -0.5 0  0.4899999999999722 -0.5 0  0.5 -0.4902110204681464 0  0.5 -0.4804459958734807 0  0.5 -0.4707048677450883 0  0.5 -0.4609875815766065 0  0.5 -0.4512940759251849 0  0.5 -0.4416242912883993 0  0.5 -0.4319781678689807 0  0.5 -0.4223556545383647 0  0.5 -0.4127566896324213 0  0.5 -0.4031812128200121 0  0.5 -0.3936291733057916 0  0.5 -0.3841005081172659 0  0.5 -0.3745951585781932 0  0.5 -0.3651130778999337 0  0.5 -0.3556541993788045 0  0.5 -0.3462184677228392 0  0.5 -0.3368058273705318 0  0.5 -0.3274162224888609 0  0.5 -0.3180495969712945 0  0.5 -0.3087058944357755 0  0.5 -0.299385058222682 0  0.5 -0.2900870313927414 0  0.5 -0.2808117567250807 0  0.5 -0.2715591844628491 0  0.5 -0.2623292564012653 0  0.5 -0.253121909553727 0  0.5 -0.2439371050851549 0  0.5 -0.2347747685524501 0  0.5 -0.2256348634421331 0  0.5 -0.2165173209784076 0  0.5 -0.207422087829958 0  0.5 -0.1983491207029381 0  0.5 -0.1892983550950482 0  0.5 -0.1802697378305253 0  0.5 -0.1712632154965152 0  0.5 -0.1622787344187354 0  0.5 -0.1533162406595534 0  0.5 -0.1443756800160514 0  0.5 -0.1354569980180493 0  0.5 -0.1265601399261414 0  0.5 -0.1176850622761093 0  0.5 -0.1088317009011999 0  0.5 -0.09166666666668973 0  0.5 -0.08333333333337943 0  0.5 -0.07500000000006915 0  0.5 -0.06666666666675886 0  0.5 -0.05833333333344858 0  0.5 -0.05000000000013693 0  0.5 -0.04166666666678191 0  0.5 -0.03333333333342643 0  0.5 -0.02500000000006916 0  0.5 -0.01666666666671188 0  0.5 -0.00833333333335548 0  0.5 0.008333333333318314 0  0.5 0.01666666666663358 0  0.5 0.02499999999994162 0  0.5 0.03333333333325101 0  0.5 0.04166666666655769 0  0.5 0.04999999999986843 0  0.5 0.05833333333322258 0  0.5 0.06666666666657715 0  0.5 0.07499999999993352 0  0.5 0.08333333333328992 0  0.5 0.09166666666664541 0  0.5 0.1088317009011616 0  0.5 0.1176850622760307 0  0.5 0.1265601399260203 0  0.5 0.1354569980178909 0  0.5 0.1443756800158549 0  0.5 0.153316240659315 0  0.5 0.1622787344184454 0  0.5 0.1712632154961752 0  0.5 0.1802697378301332 0  0.5 0.1892983550946039 0  0.5 0.1983491207024433 0  0.5 0.2074220878294123 0  0.5 0.216517320977811 0  0.5 0.2256348634414833 0  0.5 0.2347747685517479 0  0.5 0.2439371050844009 0  0.5 0.2531219095529224 0  0.5 0.2623292564004089 0  0.5 0.2715591844619371 0  0.5 0.2808117567241139 0  0.5 0.290087031391723 0  0.5 0.2993850582216101 0  0.5 0.3087058944347426 0  0.5 0.3180495969703129 0  0.5 0.3274162224879299 0  0.5 0.3368058273696494 0  0.5 0.3462184677220051 0  0.5 0.3556541993780186 0  0.5 0.3651130778991989 0  0.5 0.3745951585775107 0  0.5 0.3841005081166359 0  0.5 0.3936291733052134 0  0.5 0.4031812128194852 0  0.5 0.412756689631945 0  0.5 0.4223556545379392 0  0.5 0.431978167868607 0  0.5 0.4416242912880781 0  0.5 0.4512940759249164 0  0.5 0.4609875815763912 0  0.5 0.4707048677449264 0  0.5 0.4804459958733726 0  0.5 0.4902110204680924 0  0.4900000000000277 0.5 0  0.4800000000000555 0.5 0  0.4700000000000832 0.5 0  0.4600000000001109 0.5 0  0.4500000000001387 0.5 0  0.4400000000001664 0.5 0  0.4300000000001942 0.5 0  0.4200000000002219 0.5 0  0.4100000000002497 0.5 0  0.4000000000002774 0.5 0  0.3900000000003052 0.5 0  0.3800000000003328 0.5 0  0.3700000000003606 0.5 0  0.3600000000003883 0.5 0  0.3500000000004161 0.5 0  0.3400000000004438 0.5 0  0.3300000000004716 0.5 0  0.3200000000004993 0.5 0  0.3100000000005271 0.5 0  0.3000000000005548 0.5 0  0.2900000000005825 0.5 0  0.2800000000006103 0.5 0  0.2700000000006381 0.5 0  0.2600000000006658 0.5 0  0.2500000000006935 0.5 0  0.2400000000007212 0.5 0  0.230000000000749 0.5 0  0.2200000000007767 0.5 0  0.2100000000008044 0.5 0  0.2000000000008322 0.5 0  0.19000000000086 0.5 0  0.1800000000008877 0.5 0  0.1700000000009154 0.5 0  0.1600000000009431 0.5 0  0.1500000000009709 0.5 0  0.1400000000009986 0.5 0  0.1300000000010264 0.5 0  0.1200000000010541 0.5 0  0.1100000000010818 0.5 0  0.1000000000011096 0.5 0  0.09000000000113734 0.5 0  0.08000000000116503 0.5 0  0.07000000000119283 0.5 0  0.06000000000122058 0.5 0  0.05000000000124827 0.5 0  0.04000000000127607 0.5 0  0.03000000000130376 0.5 0  0.02000000000133151 0.5 0  0.01000000000135925 0.5 0  1.376121439022882e-12 0.5 0  -0.009999999998640763 0.5 0  -0.01999999999866864 0.5 0  -0.02999999999869629 0.5 0  -0.03999999999872406 0.5 0  -0.04999999999875182 0.5 0  -0.05999999999877947 0.5 0  -0.06999999999880724 0.5 0  -0.079999999998835 0.5 0  -0.08999999999886266 0.5 0  -0.09999999999889042 0.5 0  -0.1099999999989182 0.5 0  -0.1199999999989459 0.5 0  -0.1299999999989737 0.5 0  -0.1399999999990014 0.5 0  -0.1499999999990291 0.5 0  -0.1599999999990568 0.5 0  -0.1699999999990847 0.5 0  -0.1799999999991124 0.5 0  -0.1899999999991401 0.5 0  -0.1999999999991678 0.5 0  -0.2099999999991955 0.5 0  -0.2199999999992234 0.5 0  -0.2299999999992511 0.5 0  -0.2399999999992788 0.5 0  -0.2499999999993066 0.5 0  -0.2599999999993342 0.5 0  -0.269999999999362 0.5 0  -0.2799999999993897 0.5 0  -0.2899999999994175 0.5 0  -0.2999999999994452 0.5 0  -0.3099999999994729 0.5 0  -0.3199999999995007 0.5 0  -0.3299999999995284 0.5 0  -0.3399999999995562 0.5 0  -0.3499999999995839 0.5 0  -0.3599999999996116 0.5 0  -0.3699999999996393 0.5 0  -0.379999999999667 0.5 0  -0.3899999999996949 0.5 0  -0.3999999999997226 0.5 0  -0.4099999999997503 0.5 0  -0.419999999999778 0.5 0  -0.4299999999998058 0.5 0  -0.4399999999998336 0.5 0  -0.4499999999998613 0.5 0  -0.4599999999998891 0.5 0  -0.4699999999999167 0.5 0  -0.4799999999999445 0.5 0  -0.4899999999999722 0.5 0  -0.5 0.4902110204681464 0  -0.5 0.4804459958734807 0  -0.5 0.4707048677450883 0  -0.5 0.4609875815766065 0  -0.5 0.4512940759251849 0  -0.5 0.4416242912883993 0  -0.5 0.4319781678689807 0  -0.5 0.4223556545383647 0  -0.5 0.4127566896324213 0  -0.5 0.4031812128200121 0  -0.5 0.3936291733057916 0  -0.5 0.3841005081172659 0  -0.5 0.3745951585781932 0  -0.5 0.3651130778999337 0  -0.5 0.3556541993788045 0  -0.5 0.3462184677228392 0  -0.5 0.3368058273705318 0  -0.5 0.3274162224888609 0  -0.5 0.3180495969712945 0  -0.5 0.3087058944357755 0  -0.5 0.299385058222682 0  -0.5 0.2900870313927414 0  -0.5 0.2808117567250807 0  -0.5 0.2715591844628491 0  -0.5 0.2623292564012653 0  -0.5 0.253121909553727 0  -0.5 0.2439371050851549 0  -0.5 0.2347747685524501 0  -0.5 0.2256348634421331 0  -0.5 0.2165173209784076 0  -0.5 0.207422087829958 0  -0.5 0.1983491207029381 0  -0.5 0.1892983550950482 0  -0.5 0.1802697378305253 0  -0.5 0.1712632154965152 0  -0.5 0.1622787344187354 0  -0.5 0.1533162406595534 0  -0.5 0.1443756800160514 0  -0.5 0.1354569980180493 0  -0.5 0.1265601399261414 0  -0.5 0.1176850622761093 0  -0.5 0.1088317009011999 0  -0.5 0.09167500000001694 0  -0.5 0.08335000000003931 0  -0.5 0.07502500000006167 0  -0.5 0.06670000000008947 0  -0.5 0.05837500000011001 0  -0.5 0.0500500000001328 0  -0.5 0.0417250000001127 0  -0.5 0.03340000000008944 0  -0.5 0.02507500000006573 0  -0.5 0.01675000000004653 0  -0.5 0.008425000000027341 
[...]
<PointData  Scalars="f_25"> 
<DataArray  type="Float64"  Name="f_25"  format="ascii">1.0000000000000000e+00  7.7739098600249258e-05  1.3871076176907526e-01  2.2874075305674486e-02  5.0711396286417118e-02  9.5565216775385744e-04  1.0000000000000000e+00  1.0000000000000000e+00  2.6136806498001045e-02  2.4792794670553724e-02  1.2024094935796359e-03  1.2001660055777894e-03  8.7786559762518851e-05  1.0988117180849408e-04  1.3807645537166878e-04  1.6902575477705526e-04  1.9850397668083356e-04  2.2713899856830153e-04  2.5484825767470981e-04  2.8373685816743467e-04  3.1180807258520896e-04  3.4075917524848033e-04  3.7082382892908406e-04  4.0442276680089371e-04  4.3984810400840167e-04  4.7836900003356178e-04  5.2131677331034877e-04  5.6985359415448965e-04  6.2691175619235728e-04  6.8885747229151543e-04  7.5865605666488309e-04  8.3793132123982780e-04  9.2294714747308357e-04  1.0169521289939863e-03  1.1235154569245920e-03  1.2356482443782058e-03  1.3600598692068023e-03  1.4953926017851104e-03  1.6420896501714163e-03  1.8048527488976566e-03  1.9748828162424077e-03  2.1633062935686518e-03  2.3624261019087223e-03  2.5763982205837220e-03  2.8046399899271739e-03  3.0505592787198827e-03  3.3117065199298260e-03  3.5868661496932042e-03  3.8786727865681068e-03  4.1885337191959315e-03  4.5141749730092514e-03  4.8534635331494097e-03  5.2116520531073776e-03  5.5880893652594955e-03  5.9752758282703537e-03  6.3829878570189971e-03  6.8021597155754430e-03  7.2430036105332694e-03  7.6915797782274482e-03  8.1551952445985919e-03  8.6366159004474703e-03  9.1269403984711849e-03  9.6302932337991743e-03  1.0145329418741770e-02  1.0676294166399881e-02  1.1217907230404387e-02  1.1758789716426651e-02  1.2310596936863386e-02  1.2873605080789717e-02  1.3446781721884864e-02  1.4024953370672335e-02  1.4605056521969157e-02  1.5202683108425787e-02  1.5810410268493457e-02  1.6408271284714931e-02  1.7019648962561515e-02  1.7642692138808841e-02  1.8257436962266508e-02  1.8894903984165105e-02  1.9527062433320266e-02  2.0168821397948147e-02  2.0826710669706750e-02  2.1496308090776170e-02  2.2178529447075691e-02  2.2874969975472691e-02  2.3574018138339592e-02  2.4298800525406849e-02  2.5053127726745242e-02  2.5822092002343373e-02  2.6630592083543642e-02  2.7488523761274784e-02  2.8377856254006784e-02  2.9337528205202457e-02  3.0343368567302416e-02  3.1420405086155352e-02  3.2595696486296982e-02  3.3894042151956835e-02  3.5312249996841974e-02  3.6898539683104470e-02  3.8724118730535440e-02  4.0779762825947204e-02  4.3195204038802275e-02  4.6032212739070016e-02  4.9528203943439035e-02  5.3713831777708838e-02  5.9056631922039943e-02  6.5987597436867759e-02  7.5072918994401466e-02  8.6995813402353503e-02  1.0244033527801909e-01  1.2211846771070863e-01  1.2733688713899560e-01  1.0714529184939683e-01  9.1007408358205574e-02  7.8455964500380157e-02  6.9460299869576692e-02  6.2859593915680231e-02  5.7985220806056753e-02  5.4258252226619487e-02  5.1330215100183152e-02  4.9002199708923243e-02  4.7064038992335584e-02  4.5465487540682983e-02  4.4092064818485120e-02  4.2932245324107901e-02  4.1884586918517701e-02  4.0934813177518257e-02  4.0098337437808981e-02  3.9305593865250038e-02  3.8546091247730056e-02  3.7843455778132945e-02  3.7133497574455873e-02  3.6478484580931295e-02  3.5815438853139141e-02  3.5161765533214172e-02  3.4521684498450354e-02  3.3897899454443756e-02  3.3290461928514349e-02  3.2673273638117589e-02  3.2076621978511841e-02  3.1457980833316794e-02  3.0853290988398570e-02  3.0258470827908005e-02  2.9679030934328030e-02  2.9119905790584034e-02  2.8555663950315273e-02  2.8021017606902170e-02  2.7492533710377905e-02  2.6985092618956000e-02  2.6497440451820786e-02  2.6015861307924167e-02  2.5600458160171157e-02  2.5193063812709589e-02  2.4468549734780819e-02  2.4163647738888981e-02  2.3884856740594627e-02  2.3650248270522933e-02  2.3429255549667745e-02  2.3240650427384948e-02  2.3102386525102339e-02  2.2986668495558315e-02  2.2884958228061733e-02  2.2865874666408197e-02  2.2863672371606570e-02  2.2961951123827873e-02  2.3062335704808000e-02  2.3199852828476766e-02  2.3389239331147973e-02  2.3602599046476599e-02  2.3861031912881581e-02  2.4162338215491921e-02  2.4490696876909839e-02  2.4834794945223421e-02  2.5248683606299119e-02  2.5680605859431285e-02  2.6681548329505044e-02  2.7241802961455397e-02  2.7819220673572703e-02  2.8461328451055690e-02  2.9122366248513366e-02  2.9806002618333317e-02  3.0519490678421118e-02  3.1247030418016221e-02  3.2003005496836462e-02  3.2759939067531565e-02  3.3542744731968652e-02  3.4338875872221640e-02  3.5150968151133194e-02  3.5969864595405160e-02  3.6778199880646109e-02  3.7575360122692227e-02  3.8365683305117283e-02  3.9159668585480263e-02  3.9954465871898957e-02  4.0742141820388031e-02  4.1508671684214529e-02  4.2253086377491082e-02  4.2973550833108588e-02  4.3681648620335467e-02  4.4349098713026752e-02  4.4995515217047075e-02  4.5626476286668320e-02  4.6200478264272905e-02  4.6758887145604645e-02  4.7286438620087308e-02  4.7788205186352142e-02  4.8244072331703775e-02  4.8663649762510419e-02  4.9046801266248684e-02  4.9391201847094758e-02  4.9700411801419132e-02  4.9962509599895677e-02  5.0196551264612706e-02  5.0382048933127706e-02  5.0548878387725565e-02  5.0621520090530614e-02  5.0691943108072512e-02  5.0394578267476543e-02  4.9756210018597757e-02  4.8981467289250527e-02  4.8169823194494227e-02  4.7365059067531835e-02  4.6598182363592672e-02  4.5885331331173076e-02  4.5223792591175725e-02  4.4597491990442578e-02  4.4010380763634234e-02  4.3461603341401339e-02  4.2947385022534312e-02  4.2448036534258139e-02  4.1974071142891013e-02  4.1511866766189932e-02  4.1053843054528680e-02  4.0603578668223950e-02  4.0154473108959858e-02  3.9700143602114012e-02  3.9228508997882737e-02  3.8751422084784520e-02  3.8251414108292546e-02  3.7734370083955263e-02  3.7184579793969788e-02  3.6612555963981476e-02  3.6016010161253081e-02  3.5379678058941717e-02  3.4714350947087858e-02  3.3999116437555210e-02  3.3261461924200000e-02  3.2483707233521147e-02  3.1672077263761728e-02  3.0818079932368632e-02  2.9929604053535973e-02  2.9010213474705445e-02  2.8060002581866507e-02  2.7082609784821667e-02  2.6081126773075895e-02  2.5053934339939656e-02  2.3991165159466549e-02  2.2927055800445021e-02  2.1851605525556067e-02  2.0773276312511663e-02  1.9696929953788411e-02  1.8610669495614598e-02  1.7546717753320458e-02  1.6474554463161779e-02  1.5421344843263539e-02  1.4396073892556416e-02  1.3399438718893790e-02  1.2432795194895969e-02  1.1481042510349461e-02  1.0583541570870009e-02  9.7126491059249514e-03  8.8781443709459468e-03  8.0958374567879111e-03  7.3447958244521102e-03  6.6396429608884385e-03  5.9804657470302214e-03  5.3609625558152024e-03  4.7913156617403552e-03  4.2575895670913314e-03  3.7691887764210548e-03  3.3194546088529909e-03  2.9092987165258537e-03  2.5346935571605327e-03  2.1920896542715817e-03  1.8887120536082843e-03  1.6115247356568152e-03  1.3660088358530673e-03  1.1466175459853125e-03  9.5388455064521227e-04  7.8299254204798011e-04  6.3572746584494519e-04  5.0640717429526047e-04  3.9621827287405424e-04  3.0436277049307068e-04  2.2664650710056537e-04  1.6419557365132591e-04  1.1452673772963717e-04  7.7891260826826937e-05  5.3075639761044674e-05  3.9295537036141722e-05  3.6369565586485575e-05  4.2756816963749487e-05  5.8015643882167642e-05  8.1277088439724431e-05  1.1201926898757795e-04  1.4994064133831014e-04  1.9429698514726528e-04  2.4646761618984334e-04  3.0624935993598496e-04  3.7513962854493168e-04  4.5163436784811635e-04  5.3867289264953623e-04  6.3268615404495228e-04  7.3434612737057544e-04  8.3314578186856640e-04  9.1466171690763719e-04  9.5562329734024223e-04  9.5226110890323542e-04  9.4989310447150723e-04  9.3877139523535348e-04  9.2969684726076473e-04  9.1809872000291818e-04  9.0359264972713781e-04  8.8859003633455470e-04  8.6967693557947067e-04  8.5081767010666549e-04  8.2995839150546791e-04  8.0738125736432140e-04  7.8249792825572473e-04  7.5611021674273395e-04  7.2850096118927139e-04  6.9963875635925565e-04  6.6970256816458774e-04  6.3805306972704063e-04  6.0523726453917692e-04  5.7208714048299577e-04  5.3865899920117408e-04  5.0390661252012624e-04  4.6933913440108297e-04  4.3482457813611547e-04  4.0008293012417089e-04  3.6629447133171522e-04  3.3436761868697483e-04  3.0243918342895252e-04  2.7133798738934164e-04  2.4167479469779871e-04  2.1303073484966117e-04  1.8715626417612128e-04  1.6389817792916356e-04  1.4289200598322565e-04  1.2598727189686490e-04  1.1574482655123916e-04  1.1350583220914839e-04  1.2527372919071876e-04  1.6089561464480349e-04  2.3713288713993636e-04  3.9225598211658380e-04  6.7975952490980870e-04  2.1103137533711653e-03  3.6945948668746027e-03  6.4935441249849577e-03  1.1262252380242387e-02  1.9741183851996719e-02  3.4723707514883961e-02  6.0783985301862214e-02  1.0622295756317238e-01  1.8493087392101507e-01  3.2702566870133831e-01  5.7160166520434230e-01  1.0000000000000000e+00  1.0000000000000000e+00  1.0000000000000000e+00  1.0000000000000000e+00  1.0000000000000000e+00  1.0000000000000000e+00  1.0000000000000000e+00  1.0000000000000000e+00  1.0000000000000000e+00  1.0000000000000000e+00  1.0000000000000000e+00  1.0000000000000000e+00  1.0000000000000000e+00  1.0000000000000000e+00  1.0000000000000000e+00  1.0000000000000000e+00  1.0000000000000000e+00  1.0000000000000000e+00  1.0000000000000000e+00  1.0000000000000000e+00  1.0000000000000000e+00  1.0000000000000000e+00  1.0000000000000000e+00  1.0000000000000000e+00  1.0000000000000000e+00  1.0000000000000000e+00  1.0000000000000000e+00  1.0000000000000000e+00  1.0000000000000000e+00  1.0000000000000000e+00  1.0000000000000000e+00  1.0000000000000000e+00  1.0000000000000000e+00  1.0000000000000000e+00  9.9999999999999989e-01  1.0000000000000000e+00  1.0000000000000000e+00  1.0000000000000000e+00  1.0000000000000000e+00  1.0000000000000000e+00  1.0000000000000000e+00  1.0000000000000000e+00  1.0000000000000000e+00  1.0000000000000000e+00  1.0000000000000000e+00  1.0000000000000000e+00  1.0000000000000000e+00  1.0000000000000000e+00  1.0000000000000000e+00  1.0000000000000000e+00  1.0000000000000000e+00  1.0000000000000000e+00  1.0000000000000000e+00  1.0000000000000000e+00  1.0000000000000000e+00  1.0000000000000000e+00  1.0000000000000000e+00  1.0000000000000000e+00  1.0000000000000000e+00  1.0000000000000000e+00  1.0000000000000000e+00  1.0000000000000000e+00  1.0000000000000000e+00  1.0000000000000000e+00  1.0000000000000000e+00  9.9999999999999989e-01  1.0000000000000000e+00  1.0000000000000000e+00  1.0000000000000000e+00  1.0000000000000000e+00  1.0000000000000000e+00  1.0000000000000000e+00  1.0000000000000000e+00  1.0000000000000000e+00  1.0000000000000000e+00  1.0000000000000000e+00  1.0000000000000000e+00  1.0000000000000000e+00  1.0000000000000000e+00  1.0000000000000000e+00  1.0000000000000000e+00  1.0000000000000000e+00  1.0000000000000000e+00  1.0000000000000000e+00  1.0000000000000000e+00  1.0000000000000000e+00  1.0000000000000000e+00  1.0000000000000000e+00  1.0000000000000000e+00  1.0000000000000000e+00  1.0000000000000000e+00  1.0000000000000000e+00  1.0000000000000000e+00  1.0000000000000000e+00  1.0000000000000000e+00  1.0000000000000000e+00  1.0000000000000000e+00  1.0000000000000000e+00  1.0000000000000000e+00  1.0000000000000000e+00  1.0000000000000000e+00  1.0000000000000000e+00  1.0000000000000000e+00  1.0000000000000000e+00  1.0000000000000000e+00  1.0000000000000000e+00  1.0000000000000000e+00  1.0000000000000000e+00  1.0000000000000000e+00  1.0000000000000000e+00  5.7157108773694731e-01  3.2704082452898792e-01  1.8489410141241636e-01  1.0624074573322241e-01  6.0791446646353803e-02  3.4729398848899681e-02  1.9749096551587669e-02  1.1264678980553411e-02  6.4981390211139517e-03  3.6976506583392336e-03  2.1129410236788385e-03  6.8209538758429167e-04  3.9465905529353554e-04  2.3925853162762130e-04  1.6343172777285092e-04  1.2761461004788039e-04  1.1525653357765510e-04  1.1648061126247767e-04  1.2531954041207895e-04  1.3991575377988896e-04  1.5793356793872827e-04  1.7755359263124554e-04  1.9825752800536973e-04  2.2060999333242454e-04  2.4272307122260691e-04  2.6458974953195096e-04  2.8604578909493123e-04  3.0548457722616061e-04  3.2474121593505366e-04  3.4248886211796968e-04  3.5806360837157679e-04  3.7166507608413240e-04  3.8274651308943232e-04  3.9063874175604261e-04  3.9529226404568348e-04  3.9696158400941492e-04  3.9546158243241420e-04  3.9053471147794096e-04  3.8167521422911675e-04  3.6930975398075805e-04  3.5434511975491995e-04  3.3581139614693436e-04  3.1441482354253555e-04  2.9051931239021248e-04  2.6414258930837795e-04  2.3682342128990500e-04  2.0979399001433251e-04  1.8186088235219334e-04  1.5395191869605994e-04  1.2843745504048941e-04  1.0531911524833690e-04  9.1574762471685671e-05  8.1139568124396997e-05  1.1993615891579734e-03  1.2076325289175384e-03  1.2149200417197119e-03  1.2199601288178658e-03  1.2250551574764152e-03  1.2516366956893284e-03  1.2615951538511737e-03  1.2594475327313559e-03  1.2874247795463256e-03  1.3165789855457645e-03  1.3113263732764712e-03  1.3430416117649955e-03  1.3714678931444027e-03  1.3885467095800144e-03  1.4051572574651206e-03  1.4134972904192198e-03  1.4291403304539315e-03  1.4350324635158862e-03  1.4693649333239061e-03  1.4874869085970614e-03  1.4900385072041577e-03  1.5014551997054985e-03  1.5255885613183564e-03  1.5335916039863240e-03  1.5274872085433567e-03  1.5336332201149976e-03  1.5358439086734859e-03  1.5285746231596396e-03  1.5366851665706673e-03  1.5236154167182915e-03  1.5072342806549861e-03  1.5011046942826935e-03  1.4895899865663993e-03  1.4646784312227490e-03  1.4621520960103689e-03  1.4675572314392855e-03  1.4314750162233189e-03  1.4471946334863549e-03  1.4565299445741251e-03  1.4659425087485214e-03  1.5406454124231603e-03  1.6176775782400250e-03  1.7305596939573172e-03  1.9343375647077501e-03  2.1989584646539351e-03  2.5935622285507259e-03  3.1614195147735319e-03  3.9120455228254768e-03  4.8976695363832532e-03  6.2275954582658192e-03  7.9621307206590563e-03  1.0186389807586562e-02  1.3031850209555558e-02  1.6473629926862462e-02  2.0609240455967431e-02  2.5465413204617374e-02  3.0882737589653052e-02  3.6715588082479246e-02  4.2784562452225908e-02  4.8627915576560869e-02  5.3985645970343721e-02  5.8492819035133987e-02  6.2009852140968491e-02  6.4454561722835341e-02  6.5778593385459758e-02  6.6172981793226587e-02  6.5743182832890559e-02  6.4691097497397446e-02  6.3195965148547126e-02  6.1349067905946943e-02  5.9432904461818065e-02  5.7423597842259533e-02  5.5422894823176076e-02  5.3508185880325167e-02  5.1700937934432999e-02  5.0005013187205953e-02  4.8428581954666407e-02  4.7004097306124704e-02  4.5700462080179152e-02  4.4525035673660576e-02  4.3448152790848529e-02  4.2463333467701390e-02  4.1575614857535137e-02  4.0767085447859577e-02  4.0017314135026801e-02  3.9342219557534752e-02  3.8718169772090409e-02  3.8147470303685399e-02  3.7611906634051916e-02  3.7100522537065569e-02  3.6625878258336318e-02  3.6173532963371495e-02  3.5726875838719717e-02  3.5289536484126728e-02  3.4853512492345071e-02  3.4425039441547810e-02  3.3993239065384026e-02  3.3549273766477684e-02  3.3093684175355208e-02  3.2620253288252229e-02  3.2129586698101328e-02  3.1618128520307515e-02  3.1085942593408116e-02  3.0525568377995471e-02  2.9936113225576006e-02  2.9325455135017910e-02  2.8688226759344623e-02  2.8042856328675706e-02  2.7403461333163272e-02  2.6813968262492258e-02  2.6350988217390504e-02  1.2015756983136863e-03  1.2093022717154127e-03  1.2162975259767165e-03  1.2208403899402519e-03  1.2253362805703153e-03  1.2514712866144560e-03  1.2598484132606991e-03  1.2564423811974293e-03  1.2820158284763102e-03  1.3085324472433093e-03  1.3029884913028885e-03  1.3294292934462357e-03  1.3548111930445721e-03  1.3685204950933910e-03  1.3817169852181870e-03  1.3872927585572776e-03  1.3984261695467871e-03  1.3988452455014474e-03  1.4313712682760887e-03  1.4505493781499931e-03  1.4508063084103095e-03  1.4609300793032157e-03  1.4803717815263069e-03  1.4864735679896092e-03  1.4776368956637617e-03  1.4821132618689785e-03  1.4837758413652521e-03  1.4757565402553599e-03  1.4826538268834409e-03  1.4698787215404565e-03  1.4530968580657314e-03  1.4461308166675466e-03  1.4338019446766667e-03  1.4095995647939595e-03  1.4079093539022271e-03  1.4149838543987146e-03  1.3789372625768047e-03  1.3950799031687878e-03  1.4037512156815891e-03  1.4132292927304634e-03  1.4893065656946566e-03  1.5658706163150812e-03  1.6798759871090206e-03  1.8848480550068029e-03  2.1488588901061177e-03  2.5406738885937483e-03  3.1013908047250916e-03  3.8401888332915330e-03  4.8033021330015817e-03  6.0909233401281737e-03  7.7518790985071535e-03  9.8501433768331918e-03  1.2486156084045630e-02  1.5627013242940913e-02  1.9330462111777153e-02  2.3609882033608282e-02  2.8345554196736993e-02  3.3421466281099606e-02  3.8691689712220992e-02  4.3846367159257243e-02  4.8702879087693260e-02  5.2945122160506806e-02  5.6501777609127474e-02  5.9248931520476590e-02  6.1100785116278838e-02  6.2185543811036560e-02  6.2527978700817180e-02  6.2274763470680963e-02  6.1541685944117734e-02  6.0392411400649340e-02  5.9083132403294783e-02  5.7591381355448515e-02  5.6006110104172974e-02  5.4431181009439680e-02  5.2884968533143721e-02  5.1385628424498744e-02  4.9949861718450603e-02  4.8617007767466386e-02  4.7365990397240300e-02  4.6218780746431966e-02  4.5144547091960682e-02  4.4139656219896059e-02  4.3219841920867412e-02  4.2363139770761213e-02  4.1558621083300967e-02  4.0816527170380486e-02  4.0118740863552840e-02  3.9469746535893496e-02  3.8850039261429922e-02  3.8247791602319517e-02  3.7677772375682046e-02  3.7125531567469873e-02  3.6574016275514057e-02  3.6028952632770471e-02  3.5479681155982372e-02  3.4935096263013200e-02  3.4384039902817326e-02  3.3815608689165562e-02  3.3233408028942438e-02  3.2629161686982287e-02  3.2005298015024830e-02  3.1360188133255439e-02  3.0692935885463925e-02  2.9998387877816026e-02  2.9276312907157702e-02  2.8534670686782188e-02  2.7771559397001485e-02  2.7004785981496807e-02  2.6253298872062160e-02  2.5569738520955287e-02  2.5034951652425117e-02  9.6027154507036716e-01  9.3982724388191341e-01  8.1995608217436788e-01  6.4786692176047722e-01  4.8707507835522162e-01  3.5358523805458081e-01  2.5829964830219931e-01  1.9503091330798453e-01  1.5012411317339269e-01  1.1999385882623939e-01  9.8666581623599245e-02  8.3418752172923161e-02  7.2412371810769913e-02  6.4299649579226389e-02  5.8157741903498088e-02  5.3445522004260983e-02  4.9791272324815616e-02  4.6886911470679707e-02  4.4548497908125144e-02  4.2669649744082376e-02  4.1122586988884560e-02  3.9832969431880028e-02  3.8771310168397556e-02  3.7869743771467700e-02  3.7108429550605865e-02  3.6465952115604480e-02  3.5890957789466799e-02  3.5410472413553148e-02  3.4976541733815369e-02  3.4586201448097993e-02  3.4242576775743300e-02  3.3932207221973730e-02  3.3634550035816689e-02  3.3343517479954926e-02  3.3059506853587849e-02  3.2770646892955939e-02  3.2489567350962284e-02  3.2193342487487300e-02  3.1883788458887424e-02  3.1560583536926146e-02  3.1215927653019879e-02  3.0847860428760490e-02  3.0447832651807314e-02  3.0018821669480011e-02  2.9547112349924017e-02  2.9040170599237650e-02  2.8496133271184849e-02  2.7902959876513169e-02  2.7271121441587911e-02  2.6589650935984640e-02  2.5870809337703742e-02  2.5129045824794635e-02  2.4382315559773052e-02  2.3692078844213534e-02  2.3126544817524512e-02  5.6892301098060627e-03  1.6006574633594563e-04  3.1431857890041270e-02  4.1704195638660110e-02  2.0014297648774031e-02  4.8956782673837578e-04  2.9893978846047802e-04  4.4402556673830001e-02  3.6356897125772780e-02  1.5672071210962184e-02  1.3858293692336158e-03  1.5646765355527788e-04  3.8291568276912137e-02  4.2558929464316886e-02  4.4799695321733795e-03  2.4367588523053327e-04  4.2421336519708530e-02  2.6781262349914590e-02  1.7472420924892403e-04  5.9911583178219449e-03  4.1707208729339487e