<?xml version="1.0"?>
<VTKFile type="UnstructuredGrid"  version="0.1"  >
<UnstructuredGrid>
<Piece  NumberOfPoints="15540" NumberOfCells="30546">
<Points>
<DataArray  type="Float64"  NumberOfComponents="3"  format="ascii">0 0 0  -0.5 -0.5 0  0.5 -0.5 0  0.5 0 0  0.5 0.5 0  -0.5 0.5 0  -0.5 0.0001 0  -0.5 -0.0001 0  0.5 0.1 0  0.5 -0.1 0  -0.5 -0.1 0  -0.5 0.1 0  -0.4900000000000277 -0.5 0  -0.4800000000000555 -0.5 0  -0.4700000000000832 -0.5 0  -0.4600000000001109 -0.5 0  -0.4500000000001387 -0.5 0  -0.4400000000001664 -0.5 0  -0.4300000000001942 -0.5 0  -0.4200000000002219 -0.5 0  -0.4100000000002497 -0.5 0  -0.4000000000002774 -0.5 0  -0.3900000000003052 -0.5 0  -0.3800000000003328 -0.5 0  -0.3700000000003606 -0.5 0  -0.3600000000003883 -0.5 0  -0.3500000000004161 -0.5 0  -0.3400000000004438 -0.5 0  -0.3300000000004716 -0.5 0  -0.3200000000004993 -0.5 0  -0.3100000000005271 -0.5 0  -0.3000000000005548 -0.5 0  -0.2900000000005825 -0.5 0  -0.2800000000006103 -0.5 0  -0.2700000000006381 -0.5 0  -0.2600000000006658 -0.5 0  -0.2500000000006935 -0.5 0  -0.2400000000007212 -0.5 0  -0.230000000000749 -0.5 0  -0.2200000000007767 -0.5 0  -0.2100000000008044 -0.5 0  -0.2000000000008322 -0.5 0  -0.19000000000086 -0.5 0  -0.1800000000008877 -0.5 0  -0.1700000000009154 -0.5 0  -0.1600000000009431 -0.5 0  -0.1500000000009709 -0.5 0  -0.1400000000009986 -0.5 0  -0.1300000000010264 -0.5 0  -0.1200000000010541 -0.5 0  -0.1100000000010818 -0.5 0  -0.1000000000011096 -0.5 0  -0.09000000000113734 -0.5 0  -0.08000000000116503 -0.5 0  -0.07000000000119283 -0.5 0  -0.06000000000122058 -0.5 0  -0.05000000000124827 -0.5 0  -0.04000000000127607 -0.5 0  -0.03000000000130376 -0.5 0  -0.02000000000133151 -0.5 0  -0.01000000000135925 -0.5 0  -1.376121439022882e-12 -0.5 0  0.009999999998640763 -0.5 0  0.01999999999866864 -0.5 0  0.02999999999869629 -0.5 0  0.03999999999872406 -0.5 0  0.04999999999875182 -0.5 0  0.05999999999877947 -0.5 0  0.06999999999880724 -0.5 0  0.079999999998835 -0.5 0  0.08999999999886266 -0.5 0  0.09999999999889042 -0.5 0  0.1099999999989182 -0.5 0  0.1199999999989459 -0.5 0  0.1299999999989737 -0.5 0  0.1399999999990014 -0.5 0  0.1499999999990291 -0.5 0  0.1599999999990568 -0.5 0  0.1699999999990847 -0.5 0  0.1799999999991124 -0.5 0  0.1899999999991401 -0.5 0  0.1999999999991678 -0.5 0  0.2099999999991955 -0.5 0  0.2199999999992234 -0.5 0  0.2299999999992511 -0.5 0  0.2399999999992788 -0.5 0  0.2499999999993066 -0.5 0  0.2599999999993342 -0.5 0  0.269999999999362 -0.5 0  0.2799999999993897 -0.5 0  0.2899999999994175 -0.5 0  0.2999999999994452 -0.5 0  0.3099999999994729 -0.5 0  0.3199999999995007 -0.5 0  0.3299999999995284 -0.5 0  0.3399999999995562 -0.5 0  0.3499999999995839 -0.5 0  0.3599999999996116 -0.5 0  0.3699999999996393 -0.5 0  0.379999999999667 -0.5 0  0.3899999999996949 -0.5 0  0.3999999999997226 -0.5 0  0.4099999999997503 -0.5 0  0.419999999999778 -0.5 0  0.4299999999998058 -0.5 0  0.4399999999998336 -0.5 0  0.4499999999998613 -0.5 0  0.4599999999998891 -0.5 0  0.4699999999999167 -0.5 0  0.4799999999999445 -0.5 0  0.4899999999999722 -0.5 0  0.5 -0.4902110204681464 0  0.5 -0.4804459958734807 0  0.5 -0.4707048677450883 0  0.5 -0.4609875815766065 0  0.5 -0.4512940759251849 0  0.5 -0.4416242912883993 0  0.5 -0.4319781678689807 0  0.5 -0.4223556545383647 0  0.5 -0.4127566896324213 0  0.5 -0.4031812128200121 0  0.5 -0.3936291733057916 0  0.5 -0.3841005081172659 0  0.5 -0.3745951585781932 0  0.5 -0.3651130778999337 0  0.5 -0.3556541993788045 0  0.5 -0.3462184677228392 0  0.5 -0.3368058273705318 0  0.5 -0.3274162224888609 0  0.5 -0.3180495969712945 0  0.5 -0.3087058944357755 0  0.5 -0.299385058222682 0  0.5 -0.2900870313927414 0  0.5 -0.2808117567250807 0  0.5 -0.2715591844628491 0  0.5 -0.2623292564012653 0  0.5 -0.253121909553727 0  0.5 -0.2439371050851549 0  0.5 -0.2347747685524501 0  0.5 -0.2256348634421331 0  0.5 -0.2165173209784076 0  0.5 -0.207422087829958 0  0.5 -0.1983491207029381 0  0.5 -0.1892983550950482 0  0.5 -0.1802697378305253 0  0.5 -0.1712632154965152 0  0.5 -0.1622787344187354 0  0.5 -0.1533162406595534 0  0.5 -0.1443756800160514 0  0.5 -0.1354569980180493 0  0.5 -0.1265601399261414 0  0.5 -0.1176850622761093 0  0.5 -0.1088317009011999 0  0.5 -0.09166666666668973 0  0.5 -0.08333333333337943 0  0.5 -0.07500000000006915 0  0.5 -0.06666666666675886 0  0.5 -0.05833333333344858 0  0.5 -0.05000000000013693 0  0.5 -0.04166666666678191 0  0.5 -0.03333333333342643 0  0.5 -0.02500000000006916 0  0.5 -0.01666666666671188 0  0.5 -0.00833333333335548 0  0.5 0.008333333333318314 0  0.5 0.01666666666663358 0  0.5 0.02499999999994162 0  0.5 0.03333333333325101 0  0.5 0.04166666666655769 0  0.5 0.04999999999986843 0  0.5 0.05833333333322258 0  0.5 0.06666666666657715 0  0.5 0.07499999999993352 0  0.5 0.08333333333328992 0  0.5 0.09166666666664541 0  0.5 0.1088317009011616 0  0.5 0.1176850622760307 0  0.5 0.1265601399260203 0  0.5 0.1354569980178909 0  0.5 0.1443756800158549 0  0.5 0.153316240659315 0  0.5 0.1622787344184454 0  0.5 0.1712632154961752 0  0.5 0.1802697378301332 0  0.5 0.1892983550946039 0  0.5 0.1983491207024433 0  0.5 0.2074220878294123 0  0.5 0.216517320977811 0  0.5 0.2256348634414833 0  0.5 0.2347747685517479 0  0.5 0.2439371050844009 0  0.5 0.2531219095529224 0  0.5 0.2623292564004089 0  0.5 0.2715591844619371 0  0.5 0.2808117567241139 0  0.5 0.290087031391723 0  0.5 0.2993850582216101 0  0.5 0.3087058944347426 0  0.5 0.3180495969703129 0  0.5 0.3274162224879299 0  0.5 0.3368058273696494 0  0.5 0.3462184677220051 0  0.5 0.3556541993780186 0  0.5 0.3651130778991989 0  0.5 0.3745951585775107 0  0.5 0.3841005081166359 0  0.5 0.3936291733052134 0  0.5 0.4031812128194852 0  0.5 0.412756689631945 0  0.5 0.4223556545379392 0  0.5 0.431978167868607 0  0.5 0.4416242912880781 0  0.5 0.4512940759249164 0  0.5 0.4609875815763912 0  0.5 0.4707048677449264 0  0.5 0.4804459958733726 0  0.5 0.4902110204680924 0  0.4900000000000277 0.5 0  0.4800000000000555 0.5 0  0.4700000000000832 0.5 0  0.4600000000001109 0.5 0  0.4500000000001387 0.5 0  0.4400000000001664 0.5 0  0.4300000000001942 0.5 0  0.4200000000002219 0.5 0  0.4100000000002497 0.5 0  0.4000000000002774 0.5 0  0.3900000000003052 0.5 0  0.3800000000003328 0.5 0  0.3700000000003606 0.5 0  0.3600000000003883 0.5 0  0.3500000000004161 0.5 0  0.3400000000004438 0.5 0  0.3300000000004716 0.5 0  0.3200000000004993 0.5 0  0.3100000000005271 0.5 0  0.3000000000005548 0.5 0  0.2900000000005825 0.5 0  0.2800000000006103 0.5 0  0.2700000000006381 0.5 0  0.2600000000006658 0.5 0  0.2500000000006935 0.5 0  0.2400000000007212 0.5 0  0.230000000000749 0.5 0  0.2200000000007767 0.5 0  0.2100000000008044 0.5 0  0.2000000000008322 0.5 0  0.19000000000086 0.5 0  0.1800000000008877 0.5 0  0.1700000000009154 0.5 0  0.1600000000009431 0.5 0  0.1500000000009709 0.5 0  0.1400000000009986 0.5 0  0.1300000000010264 0.5 0  0.1200000000010541 0.5 0  0.1100000000010818 0.5 0  0.1000000000011096 0.5 0  0.09000000000113734 0.5 0  0.08000000000116503 0.5 0  0.07000000000119283 0.5 0  0.06000000000122058 0.5 0  0.05000000000124827 0.5 0  0.04000000000127607 0.5 0  0.03000000000130376 0.5 0  0.02000000000133151 0.5 0  0.01000000000135925 0.5 0  1.376121439022882e-12 0.5 0  -0.009999999998640763 0.5 0  -0.01999999999866864 0.5 0  -0.02999999999869629 0.5 0  -0.03999999999872406 0.5 0  -0.04999999999875182 0.5 0  -0.05999999999877947 0.5 0  -0.06999999999880724 0.5 0  -0.079999999998835 0.5 0  -0.08999999999886266 0.5 0  -0.09999999999889042 0.5 0  -0.1099999999989182 0.5 0  -0.1199999999989459 0.5 0  -0.1299999999989737 0.5 0  -0.1399999999990014 0.5 0  -0.1499999999990291 0.5 0  -0.1599999999990568 0.5 0  -0.1699999999990847 0.5 0  -0.1799999999991124 0.5 0  -0.1899999999991401 0.5 0  -0.1999999999991678 0.5 0  -0.2099999999991955 0.5 0  -0.2199999999992234 0.5 0  -0.2299999999992511 0.5 0  -0.2399999999992788 0.5 0  -0.2499999999993066 0.5 0  -0.2599999999993342 0.5 0  -0.269999999999362 0.5 0  -0.2799999999993897 0.5 0  -0.2899999999994175 0.5 0  -0.2999999999994452 0.5 0  -0.3099999999994729 0.5 0  -0.3199999999995007 0.5 0  -0.3299999999995284 0.5 0  -0.3399999999995562 0.5 0  -0.3499999999995839 0.5 0  -0.3599999999996116 0.5 0  -0.3699999999996393 0.5 0  -0.379999999999667 0.5 0  -0.3899999999996949 0.5 0  -0.3999999999997226 0.5 0  -0.4099999999997503 0.5 0  -0.419999999999778 0.5 0  -0.4299999999998058 0.5 0  -0.4399999999998336 0.5 0  -0.4499999999998613 0.5 0  -0.4599999999998891 0.5 0  -0.4699999999999167 0.5 0  -0.4799999999999445 0.5 0  -0.4899999999999722 0.5 0  -0.5 0.4902110204681464 0  -0.5 0.4804459958734807 0  -0.5 0.4707048677450883 0  -0.5 0.4609875815766065 0  -0.5 0.4512940759251849 0  -0.5 0.4416242912883993 0  -0.5 0.4319781678689807 0  -0.5 0.4223556545383647 0  -0.5 0.4127566896324213 0  -0.5 0.4031812128200121 0  -0.5 0.3936291733057916 0  -0.5 0.3841005081172659 0  -0.5 0.3745951585781932 0  -0.5 0.3651130778999337 0  -0.5 0.3556541993788045 0  -0.5 0.3462184677228392 0  -0.5 0.3368058273705318 0  -0.5 0.3274162224888609 0  -0.5 0.3180495969712945 0  -0.5 0.3087058944357755 0  -0.5 0.299385058222682 0  -0.5 0.2900870313927414 0  -0.5 0.2808117567250807 0  -0.5 0.2715591844628491 0  -0.5 0.2623292564012653 0  -0.5 0.253121909553727 0  -0.5 0.2439371050851549 0  -0.5 0.2347747685524501 0  -0.5 0.2256348634421331 0  -0.5 0.2165173209784076 0  -0.5 0.207422087829958 0  -0.5 0.1983491207029381 0  -0.5 0.1892983550950482 0  -0.5 0.1802697378305253 0  -0.5 0.1712632154965152 0  -0.5 0.1622787344187354 0  -0.5 0.1533162406595534 0  -0.5 0.1443756800160514 0  -0.5 0.1354569980180493 0  -0.5 0.1265601399261414 0  -0.5 0.1176850622761093 0  -0.5 0.1088317009011999 0  -0.5 0.09167500000001694 0  -0.5 0.08335000000003931 0  -0.5 0.07502500000006167 0  -0.5 0.06670000000008947 0  -0.5 0.05837500000011001 0  -0.5 0.0500500000001328 0  -0.5 0.0417250000001127 0  -0.5 0.03340000000008944 0  -0.5 0.02507500000006573 0  -0.5 0.01675000000004653 0  -0.5 0.008425000000027341 
[...]
<PointData  Scalars="f_25"> 
<DataArray  type="Float64"  Name="f_25"  format="ascii">1.0000000000000000e+00  1.3213927920029575e-04  1.3029432503735311e-01  2.1988454918341702e-02  4.6613116984883782e-02  8.7435373072449840e-04  1.0000000000000000e+00  1.0000000000000000e+00  2.5042728828295543e-02  2.3210796138805938e-02  1.2057901287147079e-03  1.2021418553546047e-03  1.3359428568696845e-04  1.5468376116345539e-04  1.9001835654688313e-04  2.3087873995521283e-04  2.7153339456414987e-04  3.1151647441897933e-04  3.5026464718944931e-04  3.9029582779179841e-04  4.2891973265436490e-04  4.6872582400039664e-04  5.1017153203586861e-04  5.5639340860331511e-04  6.0497727304162472e-04  6.5714157736184234e-04  7.1430632525311009e-04  7.7775294131233303e-04  8.5097069298075984e-04  9.2935876016559250e-04  1.0165179922207699e-03  1.1142528911395552e-03  1.2178874472764014e-03  1.3314154560155008e-03  1.4587756359839717e-03  1.5916735604645244e-03  1.7378544807427339e-03  1.8956114643502511e-03  2.0652437795566493e-03  2.2517192582309060e-03  2.4451787944342975e-03  2.6580536683507381e-03  2.8814200164269466e-03  3.1197315420896589e-03  3.3721248415910900e-03  3.6420215566099288e-03  3.9263568636423180e-03  4.2240199068523613e-03  4.5376385422175574e-03  4.8680018501736791e-03  5.2130220499695791e-03  5.5699538110496501e-03  5.9444384806428890e-03  6.3345678881594134e-03  6.7333835528239280e-03  7.1501121175925461e-03  7.5767528097597219e-03  8.0216153681723062e-03  8.4725811768758333e-03  8.9339742853557884e-03  9.4096556689958252e-03  9.8917400406512753e-03  1.0384132486585764e-02  1.0883551019508856e-02  1.1394729087425892e-02  1.1915270730666772e-02  1.2430554792791820e-02  1.2952152541207514e-02  1.3483179453635629e-02  1.4020615689765144e-02  1.4559192957678740e-02  1.5096040793133749e-02  1.5647055832978110e-02  1.6206106700216792e-02  1.6751152420973560e-02  1.7307108527076495e-02  1.7872073405617708e-02  1.8425199560250922e-02  1.8998554959059593e-02  1.9563321530206606e-02  2.0135758370324976e-02  2.0721768552524170e-02  2.1316770332163865e-02  2.1921468458744299e-02  2.2538194770951207e-02  2.3155322678358965e-02  2.3795831101738146e-02  2.4462613620472477e-02  2.5141257591582002e-02  2.5856226738298443e-02  2.6616275595588733e-02  2.7405027297436484e-02  2.8258304235010870e-02  2.9154352521732554e-02  3.0116516565071021e-02  3.1169429501450709e-02  3.2336197972343592e-02  3.3615107936123732e-02  3.5050378096936487e-02  3.6707679364472695e-02  3.8580687820322541e-02  4.0789085627222076e-02  4.3393194345306883e-02  4.6611666981098802e-02  5.0479285575295900e-02  5.5432655375281518e-02  6.1881872844645996e-02  7.0362318329399126e-02  8.1531544789242197e-02  9.6050384912920256e-02  1.1460747431870746e-01  1.1956150377159698e-01  1.0049000343763888e-01  8.5210295534745586e-02  7.3296321074896725e-02  6.4723220881894292e-02  5.8405941104764575e-02  5.3720848715064988e-02  5.0121652499715508e-02  4.7282760532503354e-02  4.5017224630649104e-02  4.3124407520098974e-02  4.1560575945648534e-02  4.0216023051552710e-02  3.9082342765031350e-02  3.8060488086205074e-02  3.7136922860643226e-02  3.6331152283343771e-02  3.5571774292198162e-02  3.4849495216206984e-02  3.4190593027628759e-02  3.3528286461917828e-02  3.2927441508171541e-02  3.2324095694756486e-02  3.1736622914877569e-02  3.1168031745330879e-02  3.0620178957918284e-02  3.0092944972466912e-02  2.9560553176387911e-02  2.9054926619060863e-02  2.8532245945804346e-02  2.8027194747758312e-02  2.7534104486375024e-02  2.7058677736586604e-02  2.6603910709955839e-02  2.6147000173819438e-02  2.5719433907882328e-02  2.5299113478969164e-02  2.4898389152348939e-02  2.4517022609924222e-02  2.4140609780617037e-02  2.3823993111660009e-02  2.3514226877221912e-02  2.2971086514238938e-02  2.2747114015423692e-02  2.2545639889758225e-02  2.2381859731488169e-02  2.2229195787145471e-02  2.2104291509296881e-02  2.2021247419642603e-02  2.1956741579576198e-02  2.1903212709130124e-02  2.1919384820986220e-02  2.1949090053694938e-02  2.2093051810658407e-02  2.2206728143782301e-02  2.2350872252027292e-02  2.2538066640965096e-02  2.2744563133410760e-02  2.2988689058383024e-02  2.3267604613816703e-02  2.3568432878390274e-02  2.3881603468815054e-02  2.4252490454397344e-02  2.4637717091271914e-02  2.5522725423785066e-02  2.6014879712438911e-02  2.6520892876443124e-02  2.7080496905775686e-02  2.7655885967973356e-02  2.8249665630207300e-02  2.8868564919840779e-02  2.9499057696920277e-02  3.0153293717898433e-02  3.0808338035105746e-02  3.1485700109610743e-02  3.2174547691188798e-02  3.2877706144233222e-02  3.3587104868147526e-02  3.4288157537351274e-02  3.4980157065465534e-02  3.5667104224526534e-02  3.6358351666729488e-02  3.7051509735144317e-02  3.7739797978950718e-02  3.8410964445651105e-02  3.9063886515030385e-02  3.9697646939780451e-02  4.0321264464437484e-02  4.0911115202197472e-02  4.1483381598920482e-02  4.2042728516342817e-02  4.2553856799133143e-02  4.3051963707463489e-02  4.3523130557511898e-02  4.3972580590394612e-02  4.4381833040267174e-02  4.4759617566644441e-02  4.5104782417520355e-02  4.5415711273895105e-02  4.5695277611087493e-02  4.5932826995262042e-02  4.6144893861009527e-02  4.6313505492603879e-02  4.6463799463630079e-02  4.6531642282605375e-02  4.6595306013304229e-02  4.6342905813106461e-02  4.5800424488262707e-02  4.5144630697572824e-02  4.4461175424901786e-02  4.3787958480925350e-02  4.3151091264991552e-02  4.2564501787432096e-02  4.2025325885879240e-02  4.1520593451170221e-02  4.1052110873125519e-02  4.0620040593678630e-02  4.0220572472012918e-02  3.9837436036594460e-02  3.9478091258032227e-02  3.9131170826205493e-02  3.8790636015840825e-02  3.8459255490565711e-02  3.8131054931579415e-02  3.7799456061806881e-02  3.7455026962860939e-02  3.7106457962338663e-02  3.6739360471330917e-02  3.6357343557146905e-02  3.5948146583849580e-02  3.5518567039091169e-02  3.5065798474910606e-02  3.4578070120492542e-02  3.4063025404209794e-02  3.3502763577000834e-02  3.2918471136853540e-02  3.2295236329238440e-02  3.1637181226631048e-02  3.0936975080276815e-02  3.0200300854077679e-02  2.9429110186321703e-02  2.8623400495565086e-02  2.7785212944162477e-02  2.6916559017578119e-02  2.6015378881590556e-02  2.5072056927979952e-02  2.4117639233895847e-02  2.3142151946338167e-02  2.2152544379259710e-02  2.1153894216790179e-02  2.0134906602573052e-02  1.9125220800236417e-02  1.8096306031935683e-02  1.7074027089786427e-02  1.6067390947978679e-02  1.5077408383804907e-02  1.4106150705218102e-02  1.3138967006238973e-02  1.2216252290216946e-02  1.1310485835557871e-02  1.0432443780023285e-02  9.5995724373010519e-03  8.7911113178048509e-03  8.0226252623608676e-03  7.2963410618848467e-03  6.6056712178620717e-03  5.9629047989969266e-03  5.3537811041481226e-03  4.7900025719666423e-03  4.2647065463112064e-03  3.7798895456615878e-03  3.3318272511288806e-03  2.9171802609291447e-03  2.5455909807803531e-03  2.2020329985138550e-03  1.8937241130926367e-03  1.6148104102235740e-03  1.3666177607689644e-03  1.1430251782800537e-03  9.4745261954488241e-04  7.7273739360111059e-04  6.2097002321750570e-04  4.9149901897334520e-04  3.7888669974592466e-04  2.8517384561003707e-04  2.0699033515538375e-04  1.4434552631091246e-04  9.6592636360226205e-05  6.2306798013019661e-05  4.1357289453789588e-05  3.2501477422375829e-05  3.4815148086389957e-05  4.7692442863283490e-05  6.9987152943484394e-05  1.0108985134608928e-04  1.3995047685804951e-04  1.8754422959792413e-04  2.4353616327849579e-04  3.0924459144532948e-04  3.8303514299422019e-04  4.6753938437451095e-04  5.5918368194348388e-04  6.5841699541252941e-04  7.5490402255796866e-04  8.3442713591602594e-04  8.7451955386418155e-04  8.7180814527072715e-04  8.7041547935657747e-04  8.6089752666640331e-04  8.5376460500140078e-04  8.4451672689622313e-04  8.3269997788193765e-04  8.2065532832362740e-04  8.0505514308334047e-04  7.8977344752844791e-04  7.7270659719359206e-04  7.5409285429368911e-04  7.3337638300655767e-04  7.1117231209463837e-04  6.8790949466641894e-04  6.6332922096288497e-04  6.3759240761921191e-04  6.1017203338867244e-04  5.8147450856492673e-04  5.5229085297497590e-04  5.2253669690706871e-04  4.9131930154602864e-04  4.6000198907855775e-04  4.2852259723566530e-04  3.9652504225373285e-04  3.6507945531197045e-04  3.3525499746165955e-04  3.0492324339320779e-04  2.7523081947070332e-04  2.4660587264234651e-04  2.1871837331364160e-04  1.9339718442888589e-04  1.7029120377423830e-04  1.4927275999870719e-04  1.3218725090289449e-04  1.2158609222188185e-04  1.1889974109431455e-04  1.3011694006426528e-04  1.6513518268452409e-04  2.4075880920489741e-04  3.9529152714752136e-04  6.8224606049868230e-04  2.1118778290365571e-03  3.6958070842282613e-03  6.4944632844759070e-03  1.1262940088371491e-02  1.9741680146290252e-02  3.4724061185898374e-02  6.0784235502760811e-02  1.0622312791853800e-01  1.8493098374019379e-01  3.2702573632002224e-01  5.7160169709371023e-01  1.0000000000000000e+00  1.0000000000000000e+00  1.0000000000000000e+00  1.0000000000000000e+00  1.0000000000000000e+00  1.0000000000000000e+00  1.0000000000000000e+00  1.0000000000000000e+00  1.0000000000000000e+00  1.0000000000000000e+00  1.0000000000000000e+00  1.0000000000000000e+00  1.0000000000000000e+00  1.0000000000000000e+00  1.0000000000000000e+00  1.0000000000000000e+00  1.0000000000000000e+00  1.0000000000000000e+00  1.0000000000000000e+00  1.0000000000000000e+00  1.0000000000000000e+00  1.0000000000000000e+00  1.0000000000000000e+00  1.0000000000000000e+00  1.0000000000000000e+00  1.0000000000000000e+00  1.0000000000000000e+00  1.0000000000000000e+00  1.0000000000000000e+00  1.0000000000000000e+00  1.0000000000000000e+00  1.0000000000000000e+00  1.0000000000000000e+00  1.0000000000000000e+00  1.0000000000000000e+00  1.0000000000000000e+00  1.0000000000000000e+00  1.0000000000000000e+00  1.0000000000000000e+00  1.0000000000000000e+00  1.0000000000000000e+00  1.0000000000000000e+00  1.0000000000000000e+00  1.0000000000000000e+00  1.0000000000000000e+00  1.0000000000000000e+00  1.0000000000000000e+00  9.9999999999999989e-01  1.0000000000000000e+00  1.0000000000000000e+00  1.0000000000000000e+00  1.0000000000000000e+00  1.0000000000000000e+00  1.0000000000000000e+00  1.0000000000000000e+00  1.0000000000000000e+00  1.0000000000000000e+00  1.0000000000000000e+00  1.0000000000000000e+00  1.0000000000000000e+00  1.0000000000000000e+00  1.0000000000000000e+00  1.0000000000000000e+00  1.0000000000000000e+00  1.0000000000000000e+00  1.0000000000000000e+00  1.0000000000000000e+00  1.0000000000000000e+00  1.0000000000000000e+00  1.0000000000000000e+00  1.0000000000000000e+00  1.0000000000000000e+00  1.0000000000000000e+00  1.0000000000000000e+00  1.0000000000000000e+00  9.9999999999999989e-01  1.0000000000000000e+00  1.0000000000000000e+00  1.0000000000000000e+00  1.0000000000000000e+00  1.0000000000000000e+00  1.0000000000000000e+00  1.0000000000000000e+00  1.0000000000000000e+00  1.0000000000000000e+00  1.0000000000000000e+00  1.0000000000000000e+00  1.0000000000000000e+00  1.0000000000000000e+00  1.0000000000000000e+00  1.0000000000000000e+00  1.0000000000000000e+00  1.0000000000000000e+00  1.0000000000000000e+00  1.0000000000000000e+00  1.0000000000000000e+00  1.0000000000000000e+00  1.0000000000000000e+00  1.0000000000000000e+00  9.9999999999999989e-01  1.0000000000000000e+00  1.0000000000000000e+00  1.0000000000000000e+00  1.0000000000000000e+00  1.0000000000000000e+00  1.0000000000000000e+00  1.0000000000000000e+00  1.0000000000000000e+00  1.0000000000000000e+00  1.0000000000000000e+00  5.7157113981061813e-01  3.2704093494869058e-01  1.8489428087961562e-01  1.0624102415266168e-01  6.0791856202948406e-02  3.4729978896466777e-02  1.9749912194703605e-02  1.1265814748293117e-02  6.4996672702085758e-03  3.6996833685969759e-03  2.1155910405624349e-03  6.8642585765717277e-04  4.0004376585828108e-04  2.4582179500967866e-04  1.7133712225826818e-04  1.3694084498469216e-04  1.2605680856467356e-04  1.2873804673062806e-04  1.3900429303550859e-04  1.5497338478807465e-04  1.7428053544664307e-04  1.9506399414480355e-04  2.1656899426737377e-04  2.3961147680498401e-04  2.6210587157541975e-04  2.8397039398850434e-04  3.0521902187667904e-04  3.2385257229235355e-04  3.4205597247207679e-04  3.5828453688608984e-04  3.7196503056035024e-04  3.8336515067773959e-04  3.9186855221669259e-04  3.9688367086750792e-04  3.9822769750966322e-04  3.9632627887675135e-04  3.9111515830501085e-04  3.8236677875434658e-04  3.6946094946328957e-04  3.5307094233102726e-04  3.3428768133535826e-04  3.1212359187348640e-04  2.8756656244348643e-04  2.6108381909836927e-04  2.3293770282720871e-04  2.0491063510264519e-04  1.7921495232943728e-04  1.5431849701291297e-04  1.3211185782623585e-04  1.1588643772995975e-04  1.0597808762436232e-04  1.1198748522523260e-04  1.2327773836324151e-04  1.2013973353798345e-03  1.2098411733450492e-03  1.2173551432231372e-03  1.2226261507727789e-03  1.2279174762250820e-03  1.2546145848734288e-03  1.2645504155213132e-03  1.2622066055315748e-03  1.2897545827844814e-03  1.3182032295044758e-03  1.3119478366255776e-03  1.3423215152035823e-03  1.3690406134468220e-03  1.3839977989827498e-03  1.3981374774957439e-03  1.4035487266925593e-03  1.4158169785033516e-03  1.4178803919131374e-03  1.4479381609786080e-03  1.4613300518345708e-03  1.4586623134066885e-03  1.4645099710815660e-03  1.4827114766377283e-03  1.4843342432874929e-03  1.4716187742592308e-03  1.4710647106760675e-03  1.4665729183445352e-03  1.4526485259745525e-03  1.4546792100323957e-03  1.4362327597205748e-03  1.4156282412124957e-03  1.4075938920778920e-03  1.3966994218459147e-03  1.3764493288507870e-03  1.3839778373272099e-03  1.4081079618415739e-03  1.3992800546685433e-03  1.4563399243723550e-03  1.5270058689796280e-03  1.6205821379066613e-03  1.8123758415706096e-03  2.0502718086471022e-03  2.3774286182795838e-03  2.8622941457977068e-03  3.5001232456516869e-03  4.3715553463223155e-03  5.5424611574253014e-03  7.0486157402363300e-03  8.9580992540143345e-03  1.1371211411077102e-02  1.4347906776708164e-02  1.7937588366480659e-02  2.2176460053993610e-02  2.6837974050050260e-02  3.1905933544078904e-02  3.7238231329317965e-02  4.2469642328715279e-02  4.7316153510566020e-02  5.1625093983858276e-02  5.5073331760420556e-02  5.7576659929496163e-02  5.9154352776084079e-02  5.9854758858301264e-02  5.9808061006586838e-02  5.9146398233235156e-02  5.8029341649726951e-02  5.6629179875915682e-02  5.5021141696178034e-02  5.3326826039810420e-02  5.1584161112979261e-02  4.9922432744314744e-02  4.8312411929936246e-02  4.6792726583932423e-02  4.5380466498885684e-02  4.4084175251202715e-02  4.2889998322223392e-02  4.1795998412093277e-02  4.0816808542893351e-02  3.9928388888760213e-02  3.9126230174317357e-02  3.8392440541107534e-02  3.7722416822462378e-02  3.7115871242901582e-02  3.6561455885410418e-02  3.6042722749245290e-02  3.5573424406163470e-02  3.5135576075436194e-02  3.4731548959744306e-02  3.4347977635161585e-02  3.3976314765226563e-02  3.3627507839526109e-02  3.3290379698246851e-02  3.2952277849119957e-02  3.2616208372881865e-02  3.2276369010025500e-02  3.1938357066924147e-02  3.1593602456660645e-02  3.1235234305850391e-02  3.0863971157165500e-02  3.0475330625368339e-02  3.0070021598982047e-02  2.9645015148901603e-02  2.9201350158796963e-02  2.8732507515052984e-02  2.8238146672362144e-02  2.7725466231652420e-02  2.7189553242006496e-02  2.6646729816707102e-02  2.6108892536557175e-02  2.5612618682007884e-02  2.5223031710137560e-02  1.2051077654767625e-03  1.2132600258160224e-03  1.2208629025743213e-03  1.2261267204403405e-03  1.2313987707694360e-03  1.2583072466235247e-03  1.2673915035842310e-03  1.2645670018300750e-03  1.2905579830826560e-03  1.3172523796584185e-03  1.3116277518013515e-03  1.3377050920913896e-03  1.3623844650045562e-03  1.3750164104146454e-03  1.3868183150951249e-03  1.3905862054159693e-03  1.3994982896268419e-03  1.3972870232258079e-03  1.4268023603838647e-03  1.4425315381071716e-03  1.4388952206608884e-03  1.4447874956706938e-03  1.4596351216244138e-03  1.4607384494401546e-03  1.4466524930684087e-03  1.4457052712385991e-03  1.4418739347784764e-03  1.4283254336838139e-03  1.4300805426860240e-03  1.4126281316477745e-03  1.3920042123712192e-03  1.3829863288596295e-03  1.3705794046739424e-03  1.3494847095907188e-03  1.3552661278490486e-03  1.3769981930882101e-03  1.3625588477960623e-03  1.4121524729877319e-03  1.4710219711097363e-03  1.5498068960328128e-03  1.7228615045147924e-03  1.9333081812200816e-03  2.2270812742376457e-03  2.6697345512698362e-03  3.2512323552295807e-03  4.0527354363714112e-03  5.1370998939876452e-03  6.5388487763004179e-03  8.3248929343616319e-03  1.0596563710031781e-02  1.3413563861231610e-02  1.6829204398677886e-02  2.0879006016579389e-02  2.5362048943149945e-02  3.0265808765697625e-02  3.5459297523140962e-02  4.0603110305335650e-02  4.5438004437890929e-02  4.9796570574607756e-02  5.3376669491816443e-02  5.6083313348773714e-02  5.7905897657491344e-02  5.8887943182650497e-02  5.9136202792412731e-02  5.8751216645652936e-02  5.7898930662554395e-02  5.6736147631706327e-02  5.5331937528587165e-02  5.3807054532725315e-02  5.2197098811555702e-02  5.0646449440304241e-02  4.9122829658320974e-02  4.7658471694644974e-02  4.6289563698135271e-02  4.5021296529451020e-02  4.3842074939948968e-02  4.2751646912086549e-02  4.1766487572457385e-02  4.0864678813819201e-02  4.0045161384794394e-02  3.9288286137587017e-02  3.8588800045103094e-02  3.7950166192256767e-02  3.7358076360532025e-02  3.6799699412657413e-02  3.6284766236569718e-02  3.5797532247486837e-02  3.5341569344931788e-02  3.4901542956974327e-02  3.4467469912137005e-02  3.4052119342767757e-02  3.3643213156421242e-02  3.3227548935996915e-02  3.2809755786472918e-02  3.2381142974111321e-02  3.1949555317561322e-02  3.1506460080895936e-02  3.1042722855204843e-02  3.0561138332958353e-02  3.0055690696117413e-02  2.9528148809912114e-02  2.8977624841839533e-02  2.8403386631805954e-02  2.7801893485138205e-02  2.7172788848114630e-02  2.6522955216709637e-02  2.5851854196969799e-02  2.5174729523336371e-02  2.4508756349662840e-02  2.3902152620681943e-02  2.3426365621726539e-02  7.1969651140157220e-01  5.1951290710142661e-01  3.6440097779972319e-01  2.6355823769471159e-01  1.9561750526999339e-01  1.4878699420288422e-01  1.1682647847962828e-01  9.5282977320276685e-02  7.9833395971220758e-02  6.8935410730921451e-02  6.0906907503513290e-02  5.4824984446338126e-02  5.0240181313285948e-02  4.6687607284357634e-02  4.3893501337941135e-02  4.1653709247588142e-02  3.9864957625089271e-02  3.8400456216629124e-02  3.7188240322389814e-02  3.6196951339311292e-02  3.5366033723916029e-02  3.4658021554160492e-02  3.4069814216991796e-02  3.3564126467746640e-02  3.3132215737504050e-02  3.2765248809657914e-02  3.2429328779951652e-02  3.2146666171993417e-02  3.1885367786594218e-02  3.1644907921867575e-02  3.1430045239659886e-02  3.1231152854831419e-02  3.1032767552820407e-02  3.0831244562491304e-02  3.0628237918482983e-02  3.0414688903078843e-02  3.0200537136933246e-02  2.9968813618157099e-02  2.9721252735440202e-02  2.9456912880714850e-02  2.9171048346380929e-02  2.8861881769812546e-02  2.8522508853274776e-02  2.8155923225495746e-02  2.7750825824841095e-02  2.7313975700475994e-02  2.6843911774200549e-02  2.6330830202714140e-02  2.5784137353761651e-02  2.5194549294603331e-02  2.4573087851086542e-02  2.3932260142632042e-02  2.3287820538588716e-02  2.2692781501436235e-02  2.2205778082020101e-02  7.4081180255420589e-03  1.7845304538253651e-04  3.2012600622351423e-02  3.8843247237755431e-02  2.3370447429661503e-02  8.5744786390124503e-04  2.4997688180384317e-04  4.1079615405919111e-02  3.5415349247003992e-02  1.7551800182169015e-02  1.9628560915366431e-03  1.0386184454001526e-04  3.5424756616832732e-02  3.9685709782233111e-02  6.7583145996489517e-03  1.7542669133545444e-04  4.1293643707079129e-02  2.7648987647261508e-02  2.7938074514559429e-04  7.4056619880764401e-03  3.8089186949927932e