<?xml version="1.0"?>
<VTKFile type="UnstructuredGrid"  version="0.1"  >
<UnstructuredGrid>
<Piece  NumberOfPoints="15540" NumberOfCells="30546">
<Points>
<DataArray  type="Float64"  NumberOfComponents="3"  format="ascii">0 0 0  -0.5 -0.5 0  0.5 -0.5 0  0.5 0 0  0.5 0.5 0  -0.5 0.5 0  -0.5 0.0001 0  -0.5 -0.0001 0  0.5 0.1 0  0.5 -0.1 0  -0.5 -0.1 0  -0.5 0.1 0  -0.4900000000000277 -0.5 0  -0.4800000000000555 -0.5 0  -0.4700000000000832 -0.5 0  -0.4600000000001109 -0.5 0  -0.4500000000001387 -0.5 0  -0.4400000000001664 -0.5 0  -0.4300000000001942 -0.5 0  -0.4200000000002219 -0.5 0  -0.4100000000002497 -0.5 0  -0.4000000000002774 -0.5 0  -0.3900000000003052 -0.5 0  -0.3800000000003328 -0.5 0  -0.3700000000003606 -0.5 0  -0.3600000000003883 -0.5 0  -0.3500000000004161 -0.5 0  -0.3400000000004438 -0.5 0  -0.3300000000004716 -0.5 0  -0.3200000000004993 -0.5 0  -0.3100000000005271 -0.5 0  -0.3000000000005548 -0.5 0  -0.2900000000005825 -0.5 0  -0.2800000000006103 -0.5 0  -0.2700000000006381 -0.5 0  -0.2600000000006658 -0.5 0  -0.2500000000006935 -0.5 0  -0.2400000000007212 -0.5 0  -0.230000000000749 -0.5 0  -0.2200000000007767 -0.5 0  -0.2100000000008044 -0.5 0  -0.2000000000008322 -0.5 0  -0.19000000000086 -0.5 0  -0.1800000000008877 -0.5 0  -0.1700000000009154 -0.5 0  -0.1600000000009431 -0.5 0  -0.1500000000009709 -0.5 0  -0.1400000000009986 -0.5 0  -0.1300000000010264 -0.5 0  -0.1200000000010541 -0.5 0  -0.1100000000010818 -0.5 0  -0.1000000000011096 -0.5 0  -0.09000000000113734 -0.5 0  -0.08000000000116503 -0.5 0  -0.07000000000119283 -0.5 0  -0.06000000000122058 -0.5 0  -0.05000000000124827 -0.5 0  -0.04000000000127607 -0.5 0  -0.03000000000130376 -0.5 0  -0.02000000000133151 -0.5 0  -0.01000000000135925 -0.5 0  -1.376121439022882e-12 -0.5 0  0.009999999998640763 -0.5 0  0.01999999999866864 -0.5 0  0.02999999999869629 -0.5 0  0.03999999999872406 -0.5 0  0.04999999999875182 -0.5 0  0.05999999999877947 -0.5 0  0.06999999999880724 -0.5 0  0.079999999998835 -0.5 0  0.08999999999886266 -0.5 0  0.09999999999889042 -0.5 0  0.1099999999989182 -0.5 0  0.1199999999989459 -0.5 0  0.1299999999989737 -0.5 0  0.1399999999990014 -0.5 0  0.1499999999990291 -0.5 0  0.1599999999990568 -0.5 0  0.1699999999990847 -0.5 0  0.1799999999991124 -0.5 0  0.1899999999991401 -0.5 0  0.1999999999991678 -0.5 0  0.2099999999991955 -0.5 0  0.2199999999992234 -0.5 0  0.2299999999992511 -0.5 0  0.2399999999992788 -0.5 0  0.2499999999993066 -0.5 0  0.2599999999993342 -0.5 0  0.269999999999362 -0.5 0  0.2799999999993897 -0.5 0  0.2899999999994175 -0.5 0  0.2999999999994452 -0.5 0  0.3099999999994729 -0.5 0  0.3199999999995007 -0.5 0  0.3299999999995284 -0.5 0  0.3399999999995562 -0.5 0  0.3499999999995839 -0.5 0  0.3599999999996116 -0.5 0  0.3699999999996393 -0.5 0  0.379999999999667 -0.5 0  0.3899999999996949 -0.5 0  0.3999999999997226 -0.5 0  0.4099999999997503 -0.5 0  0.419999999999778 -0.5 0  0.4299999999998058 -0.5 0  0.4399999999998336 -0.5 0  0.4499999999998613 -0.5 0  0.4599999999998891 -0.5 0  0.4699999999999167 -0.5 0  0.4799999999999445 -0.5 0  0.4899999999999722 -0.5 0  0.5 -0.4902110204681464 0  0.5 -0.4804459958734807 0  0.5 -0.4707048677450883 0  0.5 -0.4609875815766065 0  0.5 -0.4512940759251849 0  0.5 -0.4416242912883993 0  0.5 -0.4319781678689807 0  0.5 -0.4223556545383647 0  0.5 -0.4127566896324213 0  0.5 -0.4031812128200121 0  0.5 -0.3936291733057916 0  0.5 -0.3841005081172659 0  0.5 -0.3745951585781932 0  0.5 -0.3651130778999337 0  0.5 -0.3556541993788045 0  0.5 -0.3462184677228392 0  0.5 -0.3368058273705318 0  0.5 -0.3274162224888609 0  0.5 -0.3180495969712945 0  0.5 -0.3087058944357755 0  0.5 -0.299385058222682 0  0.5 -0.2900870313927414 0  0.5 -0.2808117567250807 0  0.5 -0.2715591844628491 0  0.5 -0.2623292564012653 0  0.5 -0.253121909553727 0  0.5 -0.2439371050851549 0  0.5 -0.2347747685524501 0  0.5 -0.2256348634421331 0  0.5 -0.2165173209784076 0  0.5 -0.207422087829958 0  0.5 -0.1983491207029381 0  0.5 -0.1892983550950482 0  0.5 -0.1802697378305253 0  0.5 -0.1712632154965152 0  0.5 -0.1622787344187354 0  0.5 -0.1533162406595534 0  0.5 -0.1443756800160514 0  0.5 -0.1354569980180493 0  0.5 -0.1265601399261414 0  0.5 -0.1176850622761093 0  0.5 -0.1088317009011999 0  0.5 -0.09166666666668973 0  0.5 -0.08333333333337943 0  0.5 -0.07500000000006915 0  0.5 -0.06666666666675886 0  0.5 -0.05833333333344858 0  0.5 -0.05000000000013693 0  0.5 -0.04166666666678191 0  0.5 -0.03333333333342643 0  0.5 -0.02500000000006916 0  0.5 -0.01666666666671188 0  0.5 -0.00833333333335548 0  0.5 0.008333333333318314 0  0.5 0.01666666666663358 0  0.5 0.02499999999994162 0  0.5 0.03333333333325101 0  0.5 0.04166666666655769 0  0.5 0.04999999999986843 0  0.5 0.05833333333322258 0  0.5 0.06666666666657715 0  0.5 0.07499999999993352 0  0.5 0.08333333333328992 0  0.5 0.09166666666664541 0  0.5 0.1088317009011616 0  0.5 0.1176850622760307 0  0.5 0.1265601399260203 0  0.5 0.1354569980178909 0  0.5 0.1443756800158549 0  0.5 0.153316240659315 0  0.5 0.1622787344184454 0  0.5 0.1712632154961752 0  0.5 0.1802697378301332 0  0.5 0.1892983550946039 0  0.5 0.1983491207024433 0  0.5 0.2074220878294123 0  0.5 0.216517320977811 0  0.5 0.2256348634414833 0  0.5 0.2347747685517479 0  0.5 0.2439371050844009 0  0.5 0.2531219095529224 0  0.5 0.2623292564004089 0  0.5 0.2715591844619371 0  0.5 0.2808117567241139 0  0.5 0.290087031391723 0  0.5 0.2993850582216101 0  0.5 0.3087058944347426 0  0.5 0.3180495969703129 0  0.5 0.3274162224879299 0  0.5 0.3368058273696494 0  0.5 0.3462184677220051 0  0.5 0.3556541993780186 0  0.5 0.3651130778991989 0  0.5 0.3745951585775107 0  0.5 0.3841005081166359 0  0.5 0.3936291733052134 0  0.5 0.4031812128194852 0  0.5 0.412756689631945 0  0.5 0.4223556545379392 0  0.5 0.431978167868607 0  0.5 0.4416242912880781 0  0.5 0.4512940759249164 0  0.5 0.4609875815763912 0  0.5 0.4707048677449264 0  0.5 0.4804459958733726 0  0.5 0.4902110204680924 0  0.4900000000000277 0.5 0  0.4800000000000555 0.5 0  0.4700000000000832 0.5 0  0.4600000000001109 0.5 0  0.4500000000001387 0.5 0  0.4400000000001664 0.5 0  0.4300000000001942 0.5 0  0.4200000000002219 0.5 0  0.4100000000002497 0.5 0  0.4000000000002774 0.5 0  0.3900000000003052 0.5 0  0.3800000000003328 0.5 0  0.3700000000003606 0.5 0  0.3600000000003883 0.5 0  0.3500000000004161 0.5 0  0.3400000000004438 0.5 0  0.3300000000004716 0.5 0  0.3200000000004993 0.5 0  0.3100000000005271 0.5 0  0.3000000000005548 0.5 0  0.2900000000005825 0.5 0  0.2800000000006103 0.5 0  0.2700000000006381 0.5 0  0.2600000000006658 0.5 0  0.2500000000006935 0.5 0  0.2400000000007212 0.5 0  0.230000000000749 0.5 0  0.2200000000007767 0.5 0  0.2100000000008044 0.5 0  0.2000000000008322 0.5 0  0.19000000000086 0.5 0  0.1800000000008877 0.5 0  0.1700000000009154 0.5 0  0.1600000000009431 0.5 0  0.1500000000009709 0.5 0  0.1400000000009986 0.5 0  0.1300000000010264 0.5 0  0.1200000000010541 0.5 0  0.1100000000010818 0.5 0  0.1000000000011096 0.5 0  0.09000000000113734 0.5 0  0.08000000000116503 0.5 0  0.07000000000119283 0.5 0  0.06000000000122058 0.5 0  0.05000000000124827 0.5 0  0.04000000000127607 0.5 0  0.03000000000130376 0.5 0  0.02000000000133151 0.5 0  0.01000000000135925 0.5 0  1.376121439022882e-12 0.5 0  -0.009999999998640763 0.5 0  -0.01999999999866864 0.5 0  -0.02999999999869629 0.5 0  -0.03999999999872406 0.5 0  -0.04999999999875182 0.5 0  -0.05999999999877947 0.5 0  -0.06999999999880724 0.5 0  -0.079999999998835 0.5 0  -0.08999999999886266 0.5 0  -0.09999999999889042 0.5 0  -0.1099999999989182 0.5 0  -0.1199999999989459 0.5 0  -0.1299999999989737 0.5 0  -0.1399999999990014 0.5 0  -0.1499999999990291 0.5 0  -0.1599999999990568 0.5 0  -0.1699999999990847 0.5 0  -0.1799999999991124 0.5 0  -0.1899999999991401 0.5 0  -0.1999999999991678 0.5 0  -0.2099999999991955 0.5 0  -0.2199999999992234 0.5 0  -0.2299999999992511 0.5 0  -0.2399999999992788 0.5 0  -0.2499999999993066 0.5 0  -0.2599999999993342 0.5 0  -0.269999999999362 0.5 0  -0.2799999999993897 0.5 0  -0.2899999999994175 0.5 0  -0.2999999999994452 0.5 0  -0.3099999999994729 0.5 0  -0.3199999999995007 0.5 0  -0.3299999999995284 0.5 0  -0.3399999999995562 0.5 0  -0.3499999999995839 0.5 0  -0.3599999999996116 0.5 0  -0.3699999999996393 0.5 0  -0.379999999999667 0.5 0  -0.3899999999996949 0.5 0  -0.3999999999997226 0.5 0  -0.4099999999997503 0.5 0  -0.419999999999778 0.5 0  -0.4299999999998058 0.5 0  -0.4399999999998336 0.5 0  -0.4499999999998613 0.5 0  -0.4599999999998891 0.5 0  -0.4699999999999167 0.5 0  -0.4799999999999445 0.5 0  -0.4899999999999722 0.5 0  -0.5 0.4902110204681464 0  -0.5 0.4804459958734807 0  -0.5 0.4707048677450883 0  -0.5 0.4609875815766065 0  -0.5 0.4512940759251849 0  -0.5 0.4416242912883993 0  -0.5 0.4319781678689807 0  -0.5 0.4223556545383647 0  -0.5 0.4127566896324213 0  -0.5 0.4031812128200121 0  -0.5 0.3936291733057916 0  -0.5 0.3841005081172659 0  -0.5 0.3745951585781932 0  -0.5 0.3651130778999337 0  -0.5 0.3556541993788045 0  -0.5 0.3462184677228392 0  -0.5 0.3368058273705318 0  -0.5 0.3274162224888609 0  -0.5 0.3180495969712945 0  -0.5 0.3087058944357755 0  -0.5 0.299385058222682 0  -0.5 0.2900870313927414 0  -0.5 0.2808117567250807 0  -0.5 0.2715591844628491 0  -0.5 0.2623292564012653 0  -0.5 0.253121909553727 0  -0.5 0.2439371050851549 0  -0.5 0.2347747685524501 0  -0.5 0.2256348634421331 0  -0.5 0.2165173209784076 0  -0.5 0.207422087829958 0  -0.5 0.1983491207029381 0  -0.5 0.1892983550950482 0  -0.5 0.1802697378305253 0  -0.5 0.1712632154965152 0  -0.5 0.1622787344187354 0  -0.5 0.1533162406595534 0  -0.5 0.1443756800160514 0  -0.5 0.1354569980180493 0  -0.5 0.1265601399261414 0  -0.5 0.1176850622761093 0  -0.5 0.1088317009011999 0  -0.5 0.09167500000001694 0  -0.5 0.08335000000003931 0  -0.5 0.07502500000006167 0  -0.5 0.06670000000008947 0  -0.5 0.05837500000011001 0  -0.5 0.0500500000001328 0  -0.5 0.0417250000001127 0  -0.5 0.03340000000008944 0  -0.5 0.02507500000006573 0  -0.5 0.01675000000004653 0  -0.5 0.008425000000027341 
[...]
<PointData  Scalars="f_25"> 
<DataArray  type="Float64"  Name="f_25"  format="ascii">1.0000000000000000e+00  3.2038667466635817e-09  5.2004121087832231e-06  9.9379735043402839e-01  2.2797381442117593e-06  3.2255568690867623e-08  1.0000000000000000e+00  1.0000000000000000e+00  2.0787582029639941e-03  1.1725881587041408e-03  1.1821043789195880e-03  1.1815700553759825e-03  3.5722608804905587e-09  4.4514961583288028e-09  5.6014908200042118e-09  6.8605642363040036e-09  8.0624236329421460e-09  9.2261230317287480e-09  1.0347980613492330e-08  1.1514365546352653e-08  1.2639936122762401e-08  1.3802979894880779e-08  1.5013631033533815e-08  1.6376330866696407e-08  1.7820914129928879e-08  1.9396915380951944e-08  2.1152322974672832e-08  2.3131540944565973e-08  2.5447473850030238e-08  2.7952334513136998e-08  3.0765959442731326e-08  3.3946382380498073e-08  3.7342877117230455e-08  4.1088251222083808e-08  4.5314079072193108e-08  4.9745613101998106e-08  5.4642717513941007e-08  5.9950574935056368e-08  6.5680935930508263e-08  7.2002919573238689e-08  7.8590022432064708e-08  8.5859268775405109e-08  9.3515977003793660e-08  1.0171324805104608e-07  1.1042379427767351e-07  1.1977102672330696e-07  1.2965630833270153e-07  1.4004066310680249e-07  1.5102093673100189e-07  1.6263515894972364e-07  1.7481042115530469e-07  1.8745995967427004e-07  2.0078307230403472e-07  2.1473432371847360e-07  2.2906143391161696e-07  2.4411534319367370e-07  2.5958066368946822e-07  2.7581100185351906e-07  2.9231339765105847e-07  3.0934451089634031e-07  3.2701879695542352e-07  3.4503086254015573e-07  3.6351725547641782e-07  3.8244757822990448e-07  4.0200114908542291e-07  4.2196136650733470e-07  4.4196108110157844e-07  4.6243428854408964e-07  4.8335721023023298e-07  5.0474197704422669e-07  5.2641721235892356e-07  5.4829694009253054e-07  5.7095906287405622e-07  5.9406857803939190e-07  6.1705825027177153e-07  6.4066821184142702e-07  6.6484893113045526e-07  6.8909533471470344e-07  7.1427009099783733e-07  7.3961232602287181e-07  7.6553302885072958e-07  7.9227226341016182e-07  8.1973577873446305e-07  8.4800490195978962e-07  8.7702478699285533e-07  9.0655021421634318e-07  9.3726921093974686e-07  9.6935824060740575e-07  1.0024268557281966e-06  1.0371680321062347e-06  1.0740288681704668e-06  1.1123209871653329e-06  1.1534649725921822e-06  1.1964927112265070e-06  1.2422416022246773e-06  1.2916850861513393e-06  1.3457551451406586e-06  1.4040893306978841e-06  1.4683304157743907e-06  1.5410447861720754e-06  1.6215752337321119e-06  1.7145190906924664e-06  1.8215006310739124e-06  1.9516125819537988e-06  2.1050132092356654e-06  2.2983604771529762e-06  2.5461375164062918e-06  2.8720182486654654e-06  3.2993456753528584e-06  3.8597388308580902e-06  4.5835976338532576e-06  4.8186272604036994e-06  4.1410752160239201e-06  3.6123218873929856e-06  3.1993882309747783e-06  2.9038393355541447e-06  2.6863246502949143e-06  2.5263169318228844e-06  2.4034689378224345e-06  2.3075423931117582e-06  2.2328305324733727e-06  2.1721810788748570e-06  2.1242105266259482e-06  2.0849029230609799e-06  2.0539650256579733e-06  2.0281210045200444e-06  2.0069117800095081e-06  1.9901558909213701e-06  1.9764527405679946e-06  1.9652292176121400e-06  1.9568821102639206e-06  1.9505844567570128e-06  1.9469934843066037e-06  1.9462924590835418e-06  1.9495547032707114e-06  1.9588433469095746e-06  1.9777945546513322e-06  2.0138165333687895e-06  2.0769310766425495e-06  2.1950182991647049e-06  2.4111542732395408e-06  2.8002168690310128e-06  3.5321795446589507e-06  4.8433882922909926e-06  7.2535071530681532e-06  1.1538459276178873e-05  1.9677758382602107e-05  3.4505342966560211e-05  6.1736926929090144e-05  1.1068854116779804e-04  1.9800639323762129e-04  3.6008279176472481e-04  6.5229356882334864e-04  2.0738234896370889e-03  3.6519050048247374e-03  6.4391912928143816e-03  1.1179527682216639e-02  1.9578933849985221e-02  3.4368423497003316e-02  6.0121307100930457e-02  1.0517272186511072e-01  1.8343672174462552e-01  3.2563561385472561e-01  5.7175580549830229e-01  9.8245755811916180e-01  5.7232886181074782e-01  3.2993021610522422e-01  1.8476478492011436e-01  1.0531774004412940e-01  6.0237879455362763e-02  3.4356584801894768e-02  1.9621718420411993e-02  1.1149123441674990e-02  6.4538860368464996e-03  3.6757461964919366e-03  1.1554810878398171e-03  6.3726272574951581e-04  3.4989349982500869e-04  1.9501796094798573e-04  1.0817376857242136e-04  5.9859623516323802e-05  3.3560676913043986e-05  1.9122701331969531e-05  1.1537620910421228e-05  7.2808294043730750e-06  4.9663168796211844e-06  3.6823114670694462e-06  3.0036422009534090e-06  2.6297937269279772e-06  2.4288553889101027e-06  2.3229155088967815e-06  2.2641374130221606e-06  2.2339412273405564e-06  2.2191591541953958e-06  2.2129981709895185e-06  2.2114837657002390e-06  2.2135800401869752e-06  2.2155855228957257e-06  2.2202039092421024e-06  2.2240096374352126e-06  2.2285739635614514e-06  2.2343734673102620e-06  2.2381104329066009e-06  2.2426008267881482e-06  2.2474327039925181e-06  2.2519963576280110e-06  2.2560272127023001e-06  2.2596260316616479e-06  2.2633810628925982e-06  2.2667743744410611e-06  2.2698275847217898e-06  2.2722170237440418e-06  2.2747008254905624e-06  2.2764221814238627e-06  2.2790047946127046e-06  2.2784725257667961e-06  2.2795397458799177e-06  2.2643415966183088e-06  2.2319572858104906e-06  2.1910535143695713e-06  2.1462552569330534e-06  2.0996360182388533e-06  2.0530542908154347e-06  2.0074064420913054e-06  1.9629658295738086e-06  1.9188871192076979e-06  1.8760649156909419e-06  1.8344048035793446e-06  1.7940015561012457e-06  1.7539582527807080e-06  1.7153708247013189e-06  1.6775563571758320e-06  1.6402965837285589e-06  1.6039466687795713e-06  1.5682813926358949e-06  1.5333870125072153e-06  1.4985442713038418e-06  1.4646076197263447e-06  1.4307701784287820e-06  1.3975608727334485e-06  1.3640567184905817e-06  1.3311239516364335e-06  1.2985537924822722e-06  1.2655804900056924e-06  1.2328461869113112e-06  1.1993476950697602e-06  1.1663595106149311e-06  1.1330633855130757e-06  1.0996421360318613e-06  1.0657304151882098e-06  1.0316179383809555e-06  9.9734100000253542e-07  9.6288477833718346e-07  9.2821685974935271e-07  8.9335249219912551e-07  8.5816453238571845e-07  8.2231539930833874e-07  7.8687954770708454e-07  7.5138268539313827e-07  7.1602997331435605e-07  6.8096756173725905e-07  6.4569831172059584e-07  6.1122100916290100e-07  5.7650867576920823e-07  5.4237471754505698e-07  5.0905811580496021e-07  4.7657152272144491e-07  4.4494973336271143e-07  4.1366837854485703e-07  3.8400096247835910e-07  3.5501385474184020e-07  3.2702770441867358e-07  3.0058277688815186e-07  2.7498341030729971e-07  2.5073867181546628e-07  2.2787354494813404e-07  2.0616197824346177e-07  1.8600186162027476e-07  1.6691913802407515e-07  1.4926708025056389e-07  1.3282535955036689e-07  1.1766438447929410e-07  1.0366122577505925e-07  9.0702713732571882e-08  7.9088327227590389e-08  6.8348916129450231e-08  5.8710157027974297e-08  4.9986729261224470e-08  4.2220358445032505e-08  3.5229648330160048e-08  2.9116654172837481e-08  2.3660375784915391e-08  1.8926355950908443e-08  1.4896520517784278e-08  1.1404009565724817e-08  8.5123033685608480e-09  6.1186809228500018e-09  4.2315885289410989e-09  2.8243794709950570e-09  1.8575215571477949e-09  1.3294594199111693e-09  1.1952545433651851e-09  1.4318450128613938e-09  2.0153980681324538e-09  2.9116622054570484e-09  4.1031488540996716e-09  5.5568369044411929e-09  7.3132261366972822e-09  9.3625262698024751e-09  1.1754919030174125e-08  1.4433885914804503e-08  1.7498130680871924e-08  2.0819566900547540e-08  2.4417275752993756e-08  2.7917289522672497e-08  3.0804580287034302e-08  3.2259084566903202e-08  3.2153103843955617e-08  3.2090270741840698e-08  3.1727056621252677e-08  3.1445471601087358e-08  3.1082790265907637e-08  3.0623727385462029e-08  3.0153621044069491e-08  2.9551833327731829e-08  2.8959272308413334e-08  2.8301356223682867e-08  2.7587805652756295e-08  2.6799630362756315e-08  2.5963387429921733e-08  2.5096996273380574e-08  2.4200973507419852e-08  2.3295593404986091e-08  2.2388442363283313e-08  2.1541912668305737e-08  2.0885491855758994e-08  2.0580310660138230e-08  2.0915638956612680e-08  2.2545901419429983e-08  2.6605876506002223e-08  3.5089625475890435e-08  5.1850658194715930e-08  8.3775364312980439e-08  1.4446679048332089e-07  2.5803410258249709e-07  4.6837056483917750e-07  8.5715075347286726e-07  1.5640538688101035e-06  2.8759489830826372e-06  5.2991543126733110e-06  9.6278022917669328e-06  1.7809144367532172e-05  3.2582084859613803e-05  5.9490981814213136e-05  1.0813480422223632e-04  1.9581998196153841e-04  3.5979755764090852e-04  6.5481830151160685e-04  2.0961167731005695e-03  3.6840476773118561e-03  6.4858482338018258e-03  1.1256665067433275e-02  1.9737252638352173e-02  3.4720941374892476e-02  6.0782049380740798e-02  1.0622165164925920e-01  1.8493003605159719e-01  3.2702515527305176e-01  5.7160142370176570e-01  1.0000000000000000e+00  1.0000000000000000e+00  1.0000000000000000e+00  1.0000000000000000e+00  1.0000000000000000e+00  1.0000000000000000e+00  1.0000000000000000e+00  1.0000000000000000e+00  1.0000000000000000e+00  1.0000000000000000e+00  1.0000000000000000e+00  1.0000000000000000e+00  1.0000000000000000e+00  1.0000000000000000e+00  1.0000000000000000e+00  1.0000000000000000e+00  1.0000000000000000e+00  1.0000000000000000e+00  1.0000000000000000e+00  1.0000000000000000e+00  1.0000000000000000e+00  1.0000000000000000e+00  1.0000000000000000e+00  1.0000000000000000e+00  1.0000000000000000e+00  1.0000000000000000e+00  1.0000000000000000e+00  1.0000000000000000e+00  1.0000000000000000e+00  1.0000000000000000e+00  1.0000000000000000e+00  1.0000000000000000e+00  9.9999999999999989e-01  1.0000000000000000e+00  1.0000000000000000e+00  1.0000000000000000e+00  1.0000000000000000e+00  9.9999999999999989e-01  1.0000000000000000e+00  1.0000000000000000e+00  1.0000000000000000e+00  1.0000000000000000e+00  1.0000000000000000e+00  1.0000000000000000e+00  1.0000000000000000e+00  1.0000000000000000e+00  1.0000000000000000e+00  1.0000000000000000e+00  1.0000000000000000e+00  1.0000000000000000e+00  1.0000000000000000e+00  1.0000000000000000e+00  1.0000000000000000e+00  1.0000000000000000e+00  9.9999999999999989e-01  9.9999999999999989e-01  1.0000000000000000e+00  1.0000000000000000e+00  1.0000000000000000e+00  1.0000000000000000e+00  1.0000000000000000e+00  1.0000000000000000e+00  1.0000000000000000e+00  1.0000000000000000e+00  1.0000000000000000e+00  1.0000000000000000e+00  1.0000000000000000e+00  1.0000000000000000e+00  1.0000000000000000e+00  1.0000000000000000e+00  1.0000000000000000e+00  1.0000000000000000e+00  1.0000000000000000e+00  1.0000000000000000e+00  1.0000000000000000e+00  1.0000000000000000e+00  1.0000000000000000e+00  1.0000000000000000e+00  1.0000000000000000e+00  1.0000000000000000e+00  1.0000000000000000e+00  1.0000000000000000e+00  1.0000000000000000e+00  1.0000000000000000e+00  1.0000000000000000e+00  1.0000000000000000e+00  1.0000000000000000e+00  1.0000000000000000e+00  9.9999999999999989e-01  1.0000000000000000e+00  1.0000000000000000e+00  1.0000000000000000e+00  1.0000000000000000e+00  1.0000000000000000e+00  1.0000000000000000e+00  1.0000000000000000e+00  1.0000000000000000e+00  1.0000000000000000e+00  1.0000000000000000e+00  1.0000000000000000e+00  1.0000000000000000e+00  1.0000000000000000e+00  1.0000000000000000e+00  1.0000000000000000e+00  1.0000000000000000e+00  1.0000000000000000e+00  1.0000000000000000e+00  1.0000000000000000e+00  1.0000000000000000e+00  1.0000000000000000e+00  5.7157081541092991e-01  3.2704024579339602e-01  1.8489315727238831e-01  1.0623927491408200e-01  6.0789268547419902e-02  3.4726290697197175e-02  1.9744685462266747e-02  1.1258434843393604e-02  6.4895804647622452e-03  3.6859956883828061e-03  2.0973563461287176e-03  6.5513270756102767e-04  3.5991764197768067e-04  1.9537242870707318e-04  1.0819592882149277e-04  5.9558395676233655e-05  3.2620419004322601e-05  1.7824767036160249e-05  9.6379938549168630e-06  5.3023890079397524e-06  2.8771568293690355e-06  1.5649519554199820e-06  8.5783369312694388e-07  4.6884404987682255e-07  2.5808427992566127e-07  1.4416888641831599e-07  8.3139945284596083e-08  5.0834193917727974e-08  3.3646376518748159e-08  2.4644714783919525e-08  1.9999771946989224e-08  1.7710721449492191e-08  1.6620692110331343e-08  1.6091791522767482e-08  1.5805847509861256e-08  1.5609590179416319e-08  1.5395648365081962e-08  1.5108471667531628e-08  1.4699491973776788e-08  1.4172481994187371e-08  1.3557312990820635e-08  1.2810980105316265e-08  1.1960118737645516e-08  1.1017822579784087e-08  9.9853466275344597e-09  8.9240351562909483e-09  7.8844711459017338e-09  6.8193940955627902e-09  5.7684864565141891e-09  4.8284231962673197e-09  4.0001484005275464e-09  3.5690757432270242e-09  3.2724048902405686e-09  1.1789208595507120e-03  1.1823900804698337e-03  1.1825384259527441e-03  1.1783929830109438e-03  1.1725510045056925e-03  1.1865532369331438e-03  1.1823460224426746e-03  1.1649303936761295e-03  1.1761322282212822e-03  1.1877981692422551e-03  1.1644110497617615e-03  1.1772171566445150e-03  1.1866826937962658e-03  1.1848135390689577e-03  1.1827311980070463e-03  1.1728123361569678e-03  1.1708329966836541e-03  1.1599299014528209e-03  1.1782021521408339e-03  1.1818655941971431e-03  1.1710716728238744e-03  1.1707928724950260e-03  1.1852208101724832e-03  1.1857370979019078e-03  1.1735610202347939e-03  1.1765895789239626e-03  1.1783822468112298e-03  1.1720892677591862e-03  1.1845725970533031e-03  1.1782038038538058e-03  1.1702509182930456e-03  1.1758040889384815e-03  1.1763693211077697e-03  1.1653892512917992e-03  1.1765470713704616e-03  1.1925470618391978e-03  1.1657485772922280e-03  1.1823837958151774e-03  1.1817518361123232e-03  1.1674916124749528e-03  1.1922153449030553e-03  1.1867463692110947e-03  1.1722443461290861e-03  1.1877057906257205e-03  1.1775527670183814e-03  1.1859024258330298e-03  1.2152900641869200e-03  1.2373897521243910e-03  1.2535256195852159e-03  1.3062893300522193e-03  1.3620856456071412e-03  1.4175767726216954e-03  1.5270143943909888e-03  1.6149889009291062e-03  1.7061957388836799e-03  1.8205067807682291e-03  1.8974440151109310e-03  1.9443068594650521e-03  2.0388299549266319e-03  2.0662280938721573e-03  2.0755137258277943e-03  2.1007298261857951e-03  2.0633389714695702e-03  2.0793110072960192e-03  2.0786852975930069e-03  2.0731024097482014e-03  2.0507768727946506e-03  2.0134387683751146e-03  2.0414773180151874e-03  2.0460521070509042e-03  2.0335846979186024e-03  2.0179001520143494e-03  2.0204425335861218e-03  2.0144302455261387e-03  1.9812885360006821e-03  1.9977978352654709e-03  1.9868608440008228e-03  1.9670578155530135e-03  1.9859921207718849e-03  1.9737049451620135e-03  1.9594797441939925e-03  1.9829079411508273e-03  1.9927732653433452e-03  1.9727222511560531e-03  1.9658483022332177e-03  2.0153012752405540e-03  2.0088522989546039e-03  2.0108236607993177e-03  2.0109018282522388e-03  1.9845783690142110e-03  2.0067688638801579e-03  2.0235004881644764e-03  2.0239775450126320e-03  2.0249155319605030e-03  1.9941894630769170e-03  2.0231875429234771e-03  2.0394838534084202e-03  2.0490630396397557e-03  2.0387561759668488e-03  2.0440152854414952e-03  2.0562752771969826e-03  2.0679686293987270e-03  2.0693414960130368e-03  2.0827640312103507e-03  2.0929765162731842e-03  2.0822682520639391e-03  2.0875527364219567e-03  2.0827442688520969e-03  2.0637920463106576e-03  2.0929278780688920e-03  2.1068345699860737e-03  1.1794957996173435e-03  1.1825749680091410e-03  1.1827088034845200e-03  1.1785097566766342e-03  1.1727023938644945e-03  1.1871317063372744e-03  1.1825206290755092e-03  1.1653087345306504e-03  1.1759484185048033e-03  1.1871439024218828e-03  1.1659267781658450e-03  1.1762330524531528e-03  1.1856550470603644e-03  1.1836546579516152e-03  1.1815018669001350e-03  1.1721890251992835e-03  1.1690853939951488e-03  1.1560895109814647e-03  1.1758558968968933e-03  1.1836996621794888e-03  1.1735565559671600e-03  1.1746593759888858e-03  1.1869543965672704e-03  1.1876899451956722e-03  1.1745521029820514e-03  1.1772793677622499e-03  1.1795207871073698e-03  1.1732299908955328e-03  1.1848502942656595e-03  1.1787092645010096e-03  1.1700910889360606e-03  1.1742608058552292e-03  1.1733561313735988e-03  1.1623231899513873e-03  1.1733704183970772e-03  1.1899334316265832e-03  1.1625931276739356e-03  1.1791199948006923e-03  1.1773991416288620e-03  1.1627119962761259e-03  1.1881474529091575e-03  1.1816359222918595e-03  1.1669844911691922e-03  1.1812650737689379e-03  1.1666210651532474e-03  1.1665497436372644e-03  1.1815653690528580e-03  1.1827665442116473e-03  1.1676730452898612e-03  1.1770936709831780e-03  1.1773490730847425e-03  1.1601174750197924e-03  1.1785008083966431e-03  1.1755374247145326e-03  1.1680297439130591e-03  1.1771311241738087e-03  1.1731180372501473e-03  1.1575309041373437e-03  1.1792617753220876e-03  1.1747564938230160e-03  1.1672103854608970e-03  1.1768528651954807e-03  1.1555213766962717e-03  1.1661303730424416e-03  1.1688577207666165e-03  1.1690092157920888e-03  1.1601081371239504e-03  1.1433740175317492e-03  1.1641675307739532e-03  1.1727993644158690e-03  1.1713955380334422e-03  1.1659389064993858e-03  1.1737120372675421e-03  1.1758557422574892e-03  1.1622215273089350e-03  1.1774009357194083e-03  1.1759682932582917e-03  1.1679739017989078e-03  1.1811996291466510e-03  1.1736193468970299e-03  1.1626400138340356e-03  1.1727150488699397e-03  1.1737584114156934e-03  1.1594138547409234e-03  1.1488361572766007e-03  1.1733234635389099e-03  1.1668802678101655e-03  1.1673483839929389e-03  1.1685623480882522e-03  1.1548454333011992e-03  1.1684623699805602e-03  1.1782029171066902e-03  1.1761611385243352e-03  1.1722655365865853e-03  1.1505758359138302e-03  1.1646183882585983e-03  1.1719719756203080e-03  1.1761221601712592e-03  1.1675497133876286e-03  1.1672390152750931e-03  1.1696057946728553e-03  1.1717716382355112e-03  1.1693653504246163e-03  1.1744711138795788e-03  1.1790053775409958e-03  1.1730815719808753e-03  1.1751625953469480e-03  1.1731630829648592e-03  1.1619977655016138e-03  1.1795107146422867e-03  1.1891967758223404e-03  9.9065467580256494e-01  9.9705613986663510e-01  9.9216306856874747e-01  9.9379110072574739e-01  9.9463399075542891e-01  9.9401869360860917e-01  9.9456334640902988e-01  9.9501811519642436e-01  9.9363720385479903e-01  9.9418897436968012e-01  9.9267333689682302e-01  9.9640092591886653e-01  9.9322235295429440e-01  9.9523680575554452e-01  9.9459615785998867e-01  9.9513148621976244e-01  9.9498000399292630e-01  9.9488541911950579e-01  9.9513771132505491e-01  9.9517865709016018e-01  9.9529068890454719e-01  9.9536648428638042e-01  9.9549685585927195e-01  9.9583983889858518e-01  9.9581215699863246e-01  9.9374318826554076e-01  9.9770260565522073e-01  9.9429577487323317e-01  9.9599009388888959e-01  9.9453306662587271e-01  9.9363444238880760e-01  9.9372074518389231e-01  9.9463058808791771e-01  9.9598796609406692e-01  9.9425239551797961e-01  9.9792859570153258e-01  9.9383263268255784e-01  9.9377424746772047e-01  9.9739296371810127e-01  9.9316225363633204e-01  9.9417845479826994e-01  9.9389439754687992e-01  9.9532520294390681e-01  9.9489442975111020e-01  9.9438543642311450e-01  9.9440203244421144e-01  9.9340604491260998e-01  9.9425861231207668e-01  9.9486015787798654e-01  9.9413676480517721e-01  9.9480409335155850e-01  9.9408591691771897e-01  9.9490197207644082e-01  9.9281333943533323e-01  9.9569713816051530e-01  2.3842366578064975e-07  8.6545665860554318e-09  1.0042556930575908e-06  1.5010750332806844e-06  1.1833327316739820e-06  3.2597879077959506e-07  3.5566829561000435e-07  1.8919187085727509e-06  1.2326978496203593e-06  5.5305108857286307e-07  6.2264933252800587e-08  4.2368679569881511e-09  2.8220764724097711e-06  1.7906020299689084e-06  1.7897719658479054e-06  1.5131233643003848e-06  3.9838213327310968e-06  9.0057275920494034e-07  8.8703091815593254e-09  2.3245279115960989e-07  5.7088856512029044e