<?xml version="1.0"?>
<VTKFile type="UnstructuredGrid"  version="0.1"  >
<UnstructuredGrid>
<Piece  NumberOfPoints="15540" NumberOfCells="30546">
<Points>
<DataArray  type="Float64"  NumberOfComponents="3"  format="ascii">0 0 0  -0.5 -0.5 0  0.5 -0.5 0  0.5 0 0  0.5 0.5 0  -0.5 0.5 0  -0.5 0.0001 0  -0.5 -0.0001 0  0.5 0.1 0  0.5 -0.1 0  -0.5 -0.1 0  -0.5 0.1 0  -0.4900000000000277 -0.5 0  -0.4800000000000555 -0.5 0  -0.4700000000000832 -0.5 0  -0.4600000000001109 -0.5 0  -0.4500000000001387 -0.5 0  -0.4400000000001664 -0.5 0  -0.4300000000001942 -0.5 0  -0.4200000000002219 -0.5 0  -0.4100000000002497 -0.5 0  -0.4000000000002774 -0.5 0  -0.3900000000003052 -0.5 0  -0.3800000000003328 -0.5 0  -0.3700000000003606 -0.5 0  -0.3600000000003883 -0.5 0  -0.3500000000004161 -0.5 0  -0.3400000000004438 -0.5 0  -0.3300000000004716 -0.5 0  -0.3200000000004993 -0.5 0  -0.3100000000005271 -0.5 0  -0.3000000000005548 -0.5 0  -0.2900000000005825 -0.5 0  -0.2800000000006103 -0.5 0  -0.2700000000006381 -0.5 0  -0.2600000000006658 -0.5 0  -0.2500000000006935 -0.5 0  -0.2400000000007212 -0.5 0  -0.230000000000749 -0.5 0  -0.2200000000007767 -0.5 0  -0.2100000000008044 -0.5 0  -0.2000000000008322 -0.5 0  -0.19000000000086 -0.5 0  -0.1800000000008877 -0.5 0  -0.1700000000009154 -0.5 0  -0.1600000000009431 -0.5 0  -0.1500000000009709 -0.5 0  -0.1400000000009986 -0.5 0  -0.1300000000010264 -0.5 0  -0.1200000000010541 -0.5 0  -0.1100000000010818 -0.5 0  -0.1000000000011096 -0.5 0  -0.09000000000113734 -0.5 0  -0.08000000000116503 -0.5 0  -0.07000000000119283 -0.5 0  -0.06000000000122058 -0.5 0  -0.05000000000124827 -0.5 0  -0.04000000000127607 -0.5 0  -0.03000000000130376 -0.5 0  -0.02000000000133151 -0.5 0  -0.01000000000135925 -0.5 0  -1.376121439022882e-12 -0.5 0  0.009999999998640763 -0.5 0  0.01999999999866864 -0.5 0  0.02999999999869629 -0.5 0  0.03999999999872406 -0.5 0  0.04999999999875182 -0.5 0  0.05999999999877947 -0.5 0  0.06999999999880724 -0.5 0  0.079999999998835 -0.5 0  0.08999999999886266 -0.5 0  0.09999999999889042 -0.5 0  0.1099999999989182 -0.5 0  0.1199999999989459 -0.5 0  0.1299999999989737 -0.5 0  0.1399999999990014 -0.5 0  0.1499999999990291 -0.5 0  0.1599999999990568 -0.5 0  0.1699999999990847 -0.5 0  0.1799999999991124 -0.5 0  0.1899999999991401 -0.5 0  0.1999999999991678 -0.5 0  0.2099999999991955 -0.5 0  0.2199999999992234 -0.5 0  0.2299999999992511 -0.5 0  0.2399999999992788 -0.5 0  0.2499999999993066 -0.5 0  0.2599999999993342 -0.5 0  0.269999999999362 -0.5 0  0.2799999999993897 -0.5 0  0.2899999999994175 -0.5 0  0.2999999999994452 -0.5 0  0.3099999999994729 -0.5 0  0.3199999999995007 -0.5 0  0.3299999999995284 -0.5 0  0.3399999999995562 -0.5 0  0.3499999999995839 -0.5 0  0.3599999999996116 -0.5 0  0.3699999999996393 -0.5 0  0.379999999999667 -0.5 0  0.3899999999996949 -0.5 0  0.3999999999997226 -0.5 0  0.4099999999997503 -0.5 0  0.419999999999778 -0.5 0  0.4299999999998058 -0.5 0  0.4399999999998336 -0.5 0  0.4499999999998613 -0.5 0  0.4599999999998891 -0.5 0  0.4699999999999167 -0.5 0  0.4799999999999445 -0.5 0  0.4899999999999722 -0.5 0  0.5 -0.4902110204681464 0  0.5 -0.4804459958734807 0  0.5 -0.4707048677450883 0  0.5 -0.4609875815766065 0  0.5 -0.4512940759251849 0  0.5 -0.4416242912883993 0  0.5 -0.4319781678689807 0  0.5 -0.4223556545383647 0  0.5 -0.4127566896324213 0  0.5 -0.4031812128200121 0  0.5 -0.3936291733057916 0  0.5 -0.3841005081172659 0  0.5 -0.3745951585781932 0  0.5 -0.3651130778999337 0  0.5 -0.3556541993788045 0  0.5 -0.3462184677228392 0  0.5 -0.3368058273705318 0  0.5 -0.3274162224888609 0  0.5 -0.3180495969712945 0  0.5 -0.3087058944357755 0  0.5 -0.299385058222682 0  0.5 -0.2900870313927414 0  0.5 -0.2808117567250807 0  0.5 -0.2715591844628491 0  0.5 -0.2623292564012653 0  0.5 -0.253121909553727 0  0.5 -0.2439371050851549 0  0.5 -0.2347747685524501 0  0.5 -0.2256348634421331 0  0.5 -0.2165173209784076 0  0.5 -0.207422087829958 0  0.5 -0.1983491207029381 0  0.5 -0.1892983550950482 0  0.5 -0.1802697378305253 0  0.5 -0.1712632154965152 0  0.5 -0.1622787344187354 0  0.5 -0.1533162406595534 0  0.5 -0.1443756800160514 0  0.5 -0.1354569980180493 0  0.5 -0.1265601399261414 0  0.5 -0.1176850622761093 0  0.5 -0.1088317009011999 0  0.5 -0.09166666666668973 0  0.5 -0.08333333333337943 0  0.5 -0.07500000000006915 0  0.5 -0.06666666666675886 0  0.5 -0.05833333333344858 0  0.5 -0.05000000000013693 0  0.5 -0.04166666666678191 0  0.5 -0.03333333333342643 0  0.5 -0.02500000000006916 0  0.5 -0.01666666666671188 0  0.5 -0.00833333333335548 0  0.5 0.008333333333318314 0  0.5 0.01666666666663358 0  0.5 0.02499999999994162 0  0.5 0.03333333333325101 0  0.5 0.04166666666655769 0  0.5 0.04999999999986843 0  0.5 0.05833333333322258 0  0.5 0.06666666666657715 0  0.5 0.07499999999993352 0  0.5 0.08333333333328992 0  0.5 0.09166666666664541 0  0.5 0.1088317009011616 0  0.5 0.1176850622760307 0  0.5 0.1265601399260203 0  0.5 0.1354569980178909 0  0.5 0.1443756800158549 0  0.5 0.153316240659315 0  0.5 0.1622787344184454 0  0.5 0.1712632154961752 0  0.5 0.1802697378301332 0  0.5 0.1892983550946039 0  0.5 0.1983491207024433 0  0.5 0.2074220878294123 0  0.5 0.216517320977811 0  0.5 0.2256348634414833 0  0.5 0.2347747685517479 0  0.5 0.2439371050844009 0  0.5 0.2531219095529224 0  0.5 0.2623292564004089 0  0.5 0.2715591844619371 0  0.5 0.2808117567241139 0  0.5 0.290087031391723 0  0.5 0.2993850582216101 0  0.5 0.3087058944347426 0  0.5 0.3180495969703129 0  0.5 0.3274162224879299 0  0.5 0.3368058273696494 0  0.5 0.3462184677220051 0  0.5 0.3556541993780186 0  0.5 0.3651130778991989 0  0.5 0.3745951585775107 0  0.5 0.3841005081166359 0  0.5 0.3936291733052134 0  0.5 0.4031812128194852 0  0.5 0.412756689631945 0  0.5 0.4223556545379392 0  0.5 0.431978167868607 0  0.5 0.4416242912880781 0  0.5 0.4512940759249164 0  0.5 0.4609875815763912 0  0.5 0.4707048677449264 0  0.5 0.4804459958733726 0  0.5 0.4902110204680924 0  0.4900000000000277 0.5 0  0.4800000000000555 0.5 0  0.4700000000000832 0.5 0  0.4600000000001109 0.5 0  0.4500000000001387 0.5 0  0.4400000000001664 0.5 0  0.4300000000001942 0.5 0  0.4200000000002219 0.5 0  0.4100000000002497 0.5 0  0.4000000000002774 0.5 0  0.3900000000003052 0.5 0  0.3800000000003328 0.5 0  0.3700000000003606 0.5 0  0.3600000000003883 0.5 0  0.3500000000004161 0.5 0  0.3400000000004438 0.5 0  0.3300000000004716 0.5 0  0.3200000000004993 0.5 0  0.3100000000005271 0.5 0  0.3000000000005548 0.5 0  0.2900000000005825 0.5 0  0.2800000000006103 0.5 0  0.2700000000006381 0.5 0  0.2600000000006658 0.5 0  0.2500000000006935 0.5 0  0.2400000000007212 0.5 0  0.230000000000749 0.5 0  0.2200000000007767 0.5 0  0.2100000000008044 0.5 0  0.2000000000008322 0.5 0  0.19000000000086 0.5 0  0.1800000000008877 0.5 0  0.1700000000009154 0.5 0  0.1600000000009431 0.5 0  0.1500000000009709 0.5 0  0.1400000000009986 0.5 0  0.1300000000010264 0.5 0  0.1200000000010541 0.5 0  0.1100000000010818 0.5 0  0.1000000000011096 0.5 0  0.09000000000113734 0.5 0  0.08000000000116503 0.5 0  0.07000000000119283 0.5 0  0.06000000000122058 0.5 0  0.05000000000124827 0.5 0  0.04000000000127607 0.5 0  0.03000000000130376 0.5 0  0.02000000000133151 0.5 0  0.01000000000135925 0.5 0  1.376121439022882e-12 0.5 0  -0.009999999998640763 0.5 0  -0.01999999999866864 0.5 0  -0.02999999999869629 0.5 0  -0.03999999999872406 0.5 0  -0.04999999999875182 0.5 0  -0.05999999999877947 0.5 0  -0.06999999999880724 0.5 0  -0.079999999998835 0.5 0  -0.08999999999886266 0.5 0  -0.09999999999889042 0.5 0  -0.1099999999989182 0.5 0  -0.1199999999989459 0.5 0  -0.1299999999989737 0.5 0  -0.1399999999990014 0.5 0  -0.1499999999990291 0.5 0  -0.1599999999990568 0.5 0  -0.1699999999990847 0.5 0  -0.1799999999991124 0.5 0  -0.1899999999991401 0.5 0  -0.1999999999991678 0.5 0  -0.2099999999991955 0.5 0  -0.2199999999992234 0.5 0  -0.2299999999992511 0.5 0  -0.2399999999992788 0.5 0  -0.2499999999993066 0.5 0  -0.2599999999993342 0.5 0  -0.269999999999362 0.5 0  -0.2799999999993897 0.5 0  -0.2899999999994175 0.5 0  -0.2999999999994452 0.5 0  -0.3099999999994729 0.5 0  -0.3199999999995007 0.5 0  -0.3299999999995284 0.5 0  -0.3399999999995562 0.5 0  -0.3499999999995839 0.5 0  -0.3599999999996116 0.5 0  -0.3699999999996393 0.5 0  -0.379999999999667 0.5 0  -0.3899999999996949 0.5 0  -0.3999999999997226 0.5 0  -0.4099999999997503 0.5 0  -0.419999999999778 0.5 0  -0.4299999999998058 0.5 0  -0.4399999999998336 0.5 0  -0.4499999999998613 0.5 0  -0.4599999999998891 0.5 0  -0.4699999999999167 0.5 0  -0.4799999999999445 0.5 0  -0.4899999999999722 0.5 0  -0.5 0.4902110204681464 0  -0.5 0.4804459958734807 0  -0.5 0.4707048677450883 0  -0.5 0.4609875815766065 0  -0.5 0.4512940759251849 0  -0.5 0.4416242912883993 0  -0.5 0.4319781678689807 0  -0.5 0.4223556545383647 0  -0.5 0.4127566896324213 0  -0.5 0.4031812128200121 0  -0.5 0.3936291733057916 0  -0.5 0.3841005081172659 0  -0.5 0.3745951585781932 0  -0.5 0.3651130778999337 0  -0.5 0.3556541993788045 0  -0.5 0.3462184677228392 0  -0.5 0.3368058273705318 0  -0.5 0.3274162224888609 0  -0.5 0.3180495969712945 0  -0.5 0.3087058944357755 0  -0.5 0.299385058222682 0  -0.5 0.2900870313927414 0  -0.5 0.2808117567250807 0  -0.5 0.2715591844628491 0  -0.5 0.2623292564012653 0  -0.5 0.253121909553727 0  -0.5 0.2439371050851549 0  -0.5 0.2347747685524501 0  -0.5 0.2256348634421331 0  -0.5 0.2165173209784076 0  -0.5 0.207422087829958 0  -0.5 0.1983491207029381 0  -0.5 0.1892983550950482 0  -0.5 0.1802697378305253 0  -0.5 0.1712632154965152 0  -0.5 0.1622787344187354 0  -0.5 0.1533162406595534 0  -0.5 0.1443756800160514 0  -0.5 0.1354569980180493 0  -0.5 0.1265601399261414 0  -0.5 0.1176850622761093 0  -0.5 0.1088317009011999 0  -0.5 0.09167500000001694 0  -0.5 0.08335000000003931 0  -0.5 0.07502500000006167 0  -0.5 0.06670000000008947 0  -0.5 0.05837500000011001 0  -0.5 0.0500500000001328 0  -0.5 0.0417250000001127 0  -0.5 0.03340000000008944 0  -0.5 0.02507500000006573 0  -0.5 0.01675000000004653 0  -0.5 0.008425000000027341 
[...]
<PointData  Scalars="f_25"> 
<DataArray  type="Float64"  Name="f_25"  format="ascii">1.0000000000000000e+00  1.3220335867883659e-04  1.3388055551071509e-01  2.2508839042612923e-02  4.7859790674558922e-02  8.9710359016605980e-04  1.0000000000000000e+00  1.0000000000000000e+00  2.5648005876704318e-02  2.3772848314928537e-02  1.2062403540212979e-03  1.2025662032550957e-03  1.3420154706692130e-04  1.5603165386054643e-04  1.9205349811205795e-04  2.3357617818379223e-04  2.7481060516341700e-04  3.1533167454022426e-04  3.5458674301747003e-04  3.9514219574563717e-04  4.3426698728517169e-04  4.7458025026696866e-04  5.1654397445460203e-04  5.6335536479462970e-04  6.1257580475450617e-04  6.6545201792650693e-04  7.2343004904883894e-04  7.8781581987398975e-04  8.6215909681681296e-04  9.4178543401434768e-04  1.0303578517749231e-03  1.1297152657303499e-03  1.2351057637197257e-03  1.3505907514152790e-03  1.4801862136744931e-03  1.6154502626353005e-03  1.7642717362263013e-03  1.9249157997120359e-03  2.0976926212227147e-03  2.2876735318258902e-03  2.4848104341107804e-03  2.7017740334652264e-03  2.9294767379718285e-03  3.1724633731735371e-03  3.4298584446808863e-03  3.7051610831257652e-03  3.9952538797639534e-03  4.2989986223172880e-03  4.6190822738932172e-03  4.9563274531789813e-03  5.3085963549863984e-03  5.6730968871254424e-03  6.0555891678826966e-03  6.4541520377656408e-03  6.8616626514798667e-03  7.2875660500184968e-03  7.7236527854523326e-03  8.1784716763036152e-03  8.6395897810529042e-03  9.1114969936099063e-03  9.5981217794259954e-03  1.0091374456485442e-02  1.0595260646717269e-02  1.1106471870933160e-02  1.1629831943574280e-02  1.2162839841953259e-02  1.2690606168323616e-02  1.3224980010819006e-02  1.3769077819226941e-02  1.4319864255255985e-02  1.4871954813431660e-02  1.5422419576044935e-02  1.5987514421659917e-02  1.6560940105483521e-02  1.7120195755752663e-02  1.7690737897028175e-02  1.8270631198784852e-02  1.8838572571952754e-02  1.9427366060881142e-02  2.0007524566511892e-02  2.0595657056357432e-02  2.1197842126169871e-02  2.1809391526341749e-02  2.2431046279577403e-02  2.3065174929809782e-02  2.3699896467881038e-02  2.4358714880888400e-02  2.5044663858066019e-02  2.5742986487604792e-02  2.6478718901321224e-02  2.7260924851078880e-02  2.8072778983215727e-02  2.8951103425527813e-02  2.9873536752641299e-02  3.0864126460427872e-02  3.1948205812252092e-02  3.3149562412880328e-02  3.4466442207157513e-02  3.5944364575808053e-02  3.7650974108642543e-02  3.9579735629487300e-02  4.1853873555126514e-02  4.4535568491152519e-02  4.7849568508640784e-02  5.1831624983652375e-02  5.6930949029964657e-02  6.3569234882728809e-02  7.2294708595670970e-02  8.3782641261380866e-02  9.8706986714287709e-02  1.1777160814386968e-01  1.2283377963849937e-01  1.0320661731822206e-01  8.7479460078915383e-02  7.5221796696902696e-02  6.6405529691892340e-02  5.9912945949189646e-02  5.5100369672799653e-02  5.1405996246345620e-02  4.8493651598179040e-02  4.6170479503960235e-02  4.4230386296492660e-02  4.2627825867561885e-02  4.1250288177381182e-02  4.0088727385139078e-02  3.9041724053278534e-02  3.8095281412058209e-02  3.7269297257406513e-02  3.6490676840769828e-02  3.5749880443821457e-02  3.5073710132871160e-02  3.4393905978121267e-02  3.3776824274206189e-02  3.3157004147736840e-02  3.2553253588246782e-02  3.1968681873800107e-02  3.1405228950325006e-02  3.0862800841725210e-02  3.0314996832290757e-02  2.9794466353560901e-02  2.9256374550668474e-02  2.8736299082827613e-02  2.8228462328218025e-02  2.7738716762663845e-02  2.7270179788212168e-02  2.6799431666371474e-02  2.6358808854828528e-02  2.5925647471477620e-02  2.5512645791420454e-02  2.5119550177835619e-02  2.4731591673661246e-02  2.4405097422772574e-02  2.4085694756279336e-02  2.3525580122696971e-02  2.3294544511832587e-02  2.3086674969731717e-02  2.2917586630827855e-02  2.2759971354499926e-02  2.2630918885624886e-02  2.2544944450500530e-02  2.2478070354221641e-02  2.2422524899011611e-02  2.2438667370520166e-02  2.2468764872551998e-02  2.2616009908432960e-02  2.2732568561209417e-02  2.2880497136982321e-02  2.3072731528296881e-02  2.3284861564196613e-02  2.3535720470654792e-02  2.3822408861892613e-02  2.4131680920346045e-02  2.4453698602480898e-02  2.4835128747799782e-02  2.5231363297919314e-02  2.6141837146007037e-02  2.6648244325155716e-02  2.7168974158991055e-02  2.7744915327096425e-02  2.8337144745482525e-02  2.8948370884855995e-02  2.9585495561835047e-02  3.0234623356975663e-02  3.0908245850433395e-02  3.1582759307080377e-02  3.2280287884930196e-02  3.2989684565186278e-02  3.3713837959436763e-02  3.4444457950441869e-02  3.5166528412237046e-02  3.5879276821573186e-02  3.6586854605038917e-02  3.7298865684040769e-02  3.8012838410432105e-02  3.8721782119681449e-02  3.9413098771021560e-02  4.0085641643925370e-02  4.0738423843513366e-02  4.1380776640665209e-02  4.1988289026453907e-02  4.2577689648011313e-02  4.3153783388849537e-02  4.3680183869717226e-02  4.4193132880077979e-02  4.4678354670939335e-02  4.5141155413158059e-02  4.5562577104528407e-02  4.5951553381978601e-02  4.6306954079814028e-02  4.6627079234181655e-02  4.6914912179378529e-02  4.7159483985430975e-02  4.7377801244323385e-02  4.7551375758849102e-02  4.7706121359974346e-02  4.7775935432907174e-02  4.7841467293509118e-02  4.7581361598248023e-02  4.7022289072243845e-02  4.6346268766134575e-02  4.5641463015786553e-02  4.4946868541668378e-02  4.4289392772103052e-02  4.3683407863742856e-02  4.3126002884959033e-02  4.2603770030197462e-02  4.2118684718432782e-02  4.1670897926818003e-02  4.1256528869721462e-02  4.0858781593969461e-02  4.0485470935151771e-02  4.0124867382199114e-02  3.9770740836204806e-02  3.9425980599761982e-02  3.9084454142284973e-02  3.8739460402408311e-02  3.8381225203219037e-02  3.8018799749429705e-02  3.7637334855663937e-02  3.7240643308158787e-02  3.6816028608266160e-02  3.6370623996567812e-02  3.5901574721845617e-02  3.5396695676841700e-02  3.4863947592453211e-02  3.4284888175193873e-02  3.3681452263579714e-02  3.3038266881100863e-02  3.2359624922283434e-02  3.1637980585513814e-02  3.0879220435743732e-02  3.0085404694903881e-02  2.9256514694966127e-02  2.8394683526180780e-02  2.7501995054542528e-02  2.6576341001215448e-02  2.5607877270423320e-02  2.4628453556004577e-02  2.3627850058155497e-02  2.2613205824980255e-02  2.1589698657992019e-02  2.0545742627905695e-02  1.9511722824893798e-02  1.8458381326289779e-02  1.7412204850112589e-02  1.6382394021443022e-02  1.5369965131599661e-02  1.4377008183395516e-02  1.3388517298749994e-02  1.2445773701251031e-02  1.1520619639507242e-02  1.0624044707324509e-02  9.7738452631024944e-03  8.9487815641758218e-03  8.1647476614756589e-03  7.4239605575187389e-03  6.7196903218079270e-03  6.0644509980802242e-03  5.4436666518803741e-03  4.8692435192324648e-03  4.3341700512971367e-03  3.8404622851625127e-03  3.3843044973703210e-03  2.9622760372221254e-03  2.5841736590732694e-03  2.2346856443983985e-03  1.9211475936654148e-03  1.6375808575003234e-03  1.3853206244676703e-03  1.1581447935422190e-03  9.5950553091797119e-04  7.8211946035717194e-04  6.2810022090454556e-04  4.9677914460355660e-04  3.8263293108236821e-04  2.8772173157777645e-04  2.0861560089446306e-04  1.4532412040254943e-04  9.7167887196385612e-05  6.2708971760450452e-05  4.1816958635439646e-05  3.3223699680122072e-05  3.6003463961459286e-05  4.9521238499398347e-05  7.2615159562159677e-05  1.0467084986584911e-04  1.4462391008182915e-04  1.9348499847159773e-04  2.5091565802788608e-04  3.1827022103352178e-04  3.9388000786239426e-04  4.8044721251914980e-04  5.7431464929285920e-04  6.7594826635768168e-04  7.7476568410570119e-04  8.5621068613314123e-04  8.9726794971841251e-04  8.9447510435900596e-04  8.9302318349824704e-04  8.8323798547783067e-04  8.7588459282441180e-04  8.6635537721210993e-04  8.5418765004761270e-04  8.4177929187259030e-04  8.2572206182704336e-04  8.0998343340175070e-04  7.9241177506370226e-04  7.7325214348630800e-04  7.5193476203727833e-04  7.2909428693801069e-04  7.0516564957916390e-04  6.7989022403685195e-04  6.5343334005805293e-04  6.2525254040136414e-04  5.9576751960302053e-04  5.6578906549481750e-04  5.3523471159780953e-04  5.0318661408260755e-04  4.7104402263482522e-04  4.3874141931634286e-04  4.0591642340581224e-04  3.7366726758173623e-04  3.4308360813025459e-04  3.1199422717634952e-04  2.8156317841386856e-04  2.5223278722100715e-04  2.2366091970765100e-04  1.9771376515439017e-04  1.7403095556636241e-04  1.5246328039651195e-04  1.3488088850818744e-04  1.2384961992270598e-04  1.2076675229367489e-04  1.3163188088068963e-04  1.6634805389699803e-04  2.4170659482860229e-04  3.9603495706799411e-04  6.8281630074196230e-04  2.1122014000234351e-03  3.6960471103235351e-03  6.4946381695107662e-03  1.1263066906970889e-02  1.9741769274626911e-02  3.4724123856918879e-02  6.0784279339758565e-02  1.0622315747498197e-01  1.8493100269721077e-01  3.2702574793312128e-01  5.7160170255523901e-01  1.0000000000000000e+00  1.0000000000000000e+00  1.0000000000000000e+00  1.0000000000000000e+00  1.0000000000000000e+00  1.0000000000000000e+00  1.0000000000000000e+00  1.0000000000000000e+00  1.0000000000000000e+00  1.0000000000000000e+00  1.0000000000000000e+00  1.0000000000000000e+00  1.0000000000000000e+00  1.0000000000000000e+00  1.0000000000000000e+00  1.0000000000000000e+00  1.0000000000000000e+00  1.0000000000000000e+00  1.0000000000000000e+00  1.0000000000000000e+00  1.0000000000000000e+00  1.0000000000000000e+00  1.0000000000000000e+00  1.0000000000000000e+00  1.0000000000000000e+00  1.0000000000000000e+00  9.9999999999999989e-01  1.0000000000000000e+00  1.0000000000000000e+00  1.0000000000000000e+00  1.0000000000000000e+00  1.0000000000000000e+00  1.0000000000000000e+00  1.0000000000000000e+00  1.0000000000000000e+00  1.0000000000000000e+00  1.0000000000000000e+00  1.0000000000000000e+00  1.0000000000000000e+00  1.0000000000000000e+00  1.0000000000000000e+00  1.0000000000000000e+00  1.0000000000000000e+00  1.0000000000000000e+00  1.0000000000000000e+00  1.0000000000000000e+00  1.0000000000000000e+00  1.0000000000000000e+00  1.0000000000000000e+00  1.0000000000000000e+00  1.0000000000000000e+00  9.9999999999999989e-01  1.0000000000000000e+00  1.0000000000000000e+00  1.0000000000000000e+00  1.0000000000000000e+00  1.0000000000000000e+00  1.0000000000000000e+00  1.0000000000000000e+00  1.0000000000000000e+00  1.0000000000000000e+00  1.0000000000000000e+00  1.0000000000000000e+00  1.0000000000000000e+00  1.0000000000000000e+00  1.0000000000000000e+00  1.0000000000000000e+00  1.0000000000000000e+00  1.0000000000000000e+00  1.0000000000000000e+00  1.0000000000000000e+00  1.0000000000000000e+00  1.0000000000000000e+00  1.0000000000000000e+00  1.0000000000000000e+00  1.0000000000000000e+00  1.0000000000000000e+00  1.0000000000000000e+00  1.0000000000000000e+00  1.0000000000000000e+00  1.0000000000000000e+00  1.0000000000000000e+00  1.0000000000000000e+00  1.0000000000000000e+00  1.0000000000000000e+00  1.0000000000000000e+00  1.0000000000000000e+00  1.0000000000000000e+00  1.0000000000000000e+00  1.0000000000000000e+00  1.0000000000000000e+00  1.0000000000000000e+00  1.0000000000000000e+00  1.0000000000000000e+00  1.0000000000000000e+00  1.0000000000000000e+00  1.0000000000000000e+00  1.0000000000000000e+00  1.0000000000000000e+00  1.0000000000000000e+00  1.0000000000000000e+00  1.0000000000000000e+00  1.0000000000000000e+00  1.0000000000000000e+00  1.0000000000000000e+00  1.0000000000000000e+00  1.0000000000000000e+00  1.0000000000000000e+00  1.0000000000000000e+00  1.0000000000000000e+00  5.7157114575715462e-01  3.2704094758971769e-01  1.8489430151183997e-01  1.0624105631208497e-01  6.0791903866091436e-02  3.4730046973714568e-02  1.9750008915440376e-02  1.1265951917900835e-02  6.4998556630550246e-03  3.6999405702732831e-03  2.1159358698995090e-03  6.8702576254856787e-04  4.0081925937574317e-04  2.4680448393533868e-04  1.7257845975025105e-04  1.3847551187379833e-04  1.2792680126847238e-04  1.3097847049840425e-04  1.4163990545169481e-04  1.5805101892951598e-04  1.7783784161290147e-04  1.9911443119431354e-04  2.2112856981344696e-04  2.4471384550116818e-04  2.6774482695821847e-04  2.9014244116673738e-04  3.1191564760716159e-04  3.3103153846724559e-04  3.4971599155464553e-04  3.6639478272466197e-04  3.8047753238751135e-04  3.9223621439640765e-04  4.0104194699176662e-04  4.0628601954314977e-04  4.0778587627364601e-04  4.0597125355156162e-04  4.0077110617378609e-04  3.9195153644097002e-04  3.7888114009241843e-04  3.6223898983528483e-04  3.4313595017443002e-04  3.2055955866125348e-04  2.9551056538348885e-04  2.6846263877780590e-04  2.3967330356680375e-04  2.1095843862689728e-04  1.8454227938748217e-04  1.5886650884689685e-04  1.3582413697305830e-04  1.1874534785028782e-04  1.0794898949863696e-04  1.1317151826471144e-04  1.2370367440104750e-04  1.2018647429163081e-03  1.2104204624077087e-03  1.2181008623510948e-03  1.2235862808530514e-03  1.2291332861289373e-03  1.2561250379533378e-03  1.2663934703159155e-03  1.2644090306215044e-03  1.2923529425961627e-03  1.3212156189403527e-03  1.3153908436777425e-03  1.3462149072466295e-03  1.3733872358182135e-03  1.3887990841193606e-03  1.4033888242470116e-03  1.4092416139520455e-03  1.4219379081615872e-03  1.4244111877165758e-03  1.4548625656084124e-03  1.4686110875381407e-03  1.4662741936992919e-03  1.4724133582675230e-03  1.4908584831942922e-03  1.4926707796135761e-03  1.4801090452754415e-03  1.4796343402009306e-03  1.4751511139410778e-03  1.4611955339813819e-03  1.4631020111923407e-03  1.4444607578528402e-03  1.4236018535082114e-03  1.4152071901748348e-03  1.4039109304231320e-03  1.3831700597778012e-03  1.3901569436362662e-03  1.4137357637130418e-03  1.4043042639165820e-03  1.4608461630294626e-03  1.5311044217931745e-03  1.6244356420611731e-03  1.8164072472780513e-03  2.0549551040683414e-03  2.3834808408559460e-03  2.8707486528511458e-03  3.5124798838592473e-03  4.3898798558497142e-03  5.5697369757074450e-03  7.0886667869031663e-03  9.0160994506748738e-03  1.1454251491807793e-02  1.4465626769132607e-02  1.8102666583515514e-02  2.2404792274556388e-02  2.7147683221191585e-02  3.2318470544162502e-02  3.7775891259490615e-02  4.3150646438405167e-02  4.8154157692568061e-02  5.2625973665510584e-02  5.6230018422286199e-02  5.8873925230117467e-02  6.0567321609928185e-02  6.1355878158351966e-02  6.1368514262930968e-02  6.0737690371041049e-02  5.9628558791023994e-02  5.8216822317431326e-02  5.6582593533783899e-02  5.4851822682668298e-02  5.3064751599302865e-02  5.1357145660387078e-02  4.9699106480680252e-02  4.8131562511798988e-02  4.6673315487823205e-02  4.5333454526961955e-02  4.4098157397621081e-02  4.2965696688200640e-02  4.1951522377818712e-02  4.1030858360739685e-02  4.0199420880178097e-02  3.9438612253215925e-02  3.8743694442711779e-02  3.8114547043792087e-02  3.7539404721703258e-02  3.7001330659542482e-02  3.6514504659058526e-02  3.6060362608428695e-02  3.5641359016258145e-02  3.5243676160336995e-02  3.4858503563329500e-02  3.4497118180159214e-02  3.4147997407453237e-02  3.3798068831393246e-02  3.3450449224278818e-02  3.3099129220372440e-02  3.2749883993095891e-02  3.2393863320355994e-02  3.2023978104194745e-02  3.1640978283127785e-02  3.1240221735635679e-02  3.0822442763054046e-02  3.0384532408862519e-02  2.9927535470074977e-02  2.9444745605734225e-02  2.8935809229307143e-02  2.8408119271759156e-02  2.7856625669079909e-02  2.7298096560235463e-02  2.6744758747161642e-02  2.6234232832783002e-02  2.5833473426520134e-02  1.2055993029716791e-03  1.2138592813246492e-03  1.2216213652255447e-03  1.2270886139686239e-03  1.2326012738008521e-03  1.2597843814805513e-03  1.2691751277985124e-03  1.2666783753255213e-03  1.2930262839049706e-03  1.3200896518498313e-03  1.3148453050364362e-03  1.3413170897438732e-03  1.3663901791079115e-03  1.3794134789731935e-03  1.3916010322693605e-03  1.3957471714814466e-03  1.4050253094117114e-03  1.4031634343104797e-03  1.4330150192896410e-03  1.4490488830428143e-03  1.4456971091337950e-03  1.4518416899423116e-03  1.4668970875782686e-03  1.4681652899508379e-03  1.4542175610785871e-03  1.4533436744346270e-03  1.4495233153300679e-03  1.4359524864647429e-03  1.4375999671549049e-03  1.4199786477197022e-03  1.3991293881657524e-03  1.3897815626761083e-03  1.3770026174136916e-03  1.3554418522068994e-03  1.3607005896759949e-03  1.3818908292426329e-03  1.3668271929084602e-03  1.4158521586769255e-03  1.4742175275207321e-03  1.5526099716150757e-03  1.7256174057124973e-03  1.9363808764656257e-03  2.2310676943605857e-03  2.6755194591531841e-03  3.2601093365913804e-03  4.0665349711459190e-03  5.1585067697205687e-03  6.5713366159373780e-03  8.3732126530420663e-03  1.0667336587357960e-02  1.3515844849295496e-02  1.6974976110843532e-02  2.1083337432763690e-02  2.5642526099208234e-02  3.0643078616561632e-02  3.5955227401499180e-02  4.1236272502506707e-02  4.6223526877752594e-02  5.0742011413422591e-02  5.4477722320661663e-02  5.7327904086342418e-02  5.9271468485190403e-02  6.0349494072550774e-02  6.0666381834345848e-02  6.0321871116127551e-02  5.9487354747096953e-02  5.8322237179423690e-02  5.6900140852362689e-02  5.5345924563241923e-02  5.3697319091838461e-02  5.2105559850632449e-02  5.0537612837795606e-02  4.9027879277275234e-02  4.7614879672971427e-02  4.6304225928142866e-02  4.5084480822202372e-02  4.3955681855520234e-02  4.2935217044632462e-02  4.2000517508502658e-02  4.1150889903991156e-02  4.0365926109936175e-02  3.9640240126612540e-02  3.8977604825639049e-02  3.8363197120813292e-02  3.7783843772211938e-02  3.7249577255459368e-02  3.6744154947091982e-02  3.6271278089808047e-02  3.5815100276609689e-02  3.5365341758073106e-02  3.4935163045252945e-02  3.4511919923866305e-02  3.4081975916054760e-02  3.3650125876852045e-02  3.3207396841938026e-02  3.2761878339063903e-02  3.2304759482209892e-02  3.1826628720959461e-02  3.1330379343531480e-02  3.0809789198225593e-02  3.0266687123013031e-02  2.9700158734126177e-02  2.9109433270680933e-02  2.8490855261081111e-02  2.7844052878258391e-02  2.7176090067999297e-02  2.6486385559182847e-02  2.5790593300638622e-02  2.5106336701860424e-02  2.4483114783461525e-02  2.3994315056350090e-02  7.3505758850534175e-01  5.3668263969089414e-01  3.7854374042037009e-01  2.7456166621856953e-01  2.0401644040244069e-01  1.5513956086087269e-01  1.2169768965982333e-01  9.9130405490352264e-02  8.2929336916082189e-02  7.1501639158109892e-02  6.3082481266097737e-02  5.6708362083887104e-02  5.1904695147577347e-02  4.8185071707892997e-02  4.5260592680137338e-02  4.2917949082658155e-02  4.1047550264148039e-02  3.9516728966016948e-02  3.8250074499341133e-02  3.7214307954288262e-02  3.6346160165367736e-02  3.5606710978931179e-02  3.4992245006504025e-02  3.4463964942695074e-02  3.4012752905883639e-02  3.3629278444040386e-02  3.3278444202174857e-02  3.2983148071722541e-02  3.2710348386602126e-02  3.2459468231189427e-02  3.2235325261323916e-02  3.2027992487553177e-02  3.1821512329783669e-02  3.1612090378426952e-02  3.1401380682388950e-02  3.1180050748760922e-02  3.0958355329166732e-02  3.0718756894563434e-02  3.0463030706682936e-02  3.0190244964547225e-02  2.9895460753100189e-02  2.9576854807004182e-02  2.9227315676844008e-02  2.8849919365279017e-02  2.8433029132265121e-02  2.7983591671062420e-02  2.7500105536453837e-02  2.6972475722424439e-02  2.6410372876424320e-02  2.5804238229819008e-02  2.5165396541304216e-02  2.4506699424482224e-02  2.3844322147859802e-02  2.3232740681271388e-02  2.2732200808060855e-02  7.5269823738841552e-03  1.8142878944332649e-04  3.2731218817319899e-02  3.9840041772634872e-02  2.3811919576301570e-02  8.6520711255020049e-04  2.5714502527988839e-04  4.2140889583463098e-02  3.6259750360981231e-02  1.7895370542737047e-02  1.9903354613020098e-03  1.0759085075575628e-04  3.6338206046676771e-02  4.0712053023437091e-02  6.8460825622062692e-03  1.8098240716776724e-04  4.2293609990057712e-02  2.8251979165984438e-02  2.8219242594867597e-04  7.5330007190955285e-03  3.9088823685456554e