<?xml version="1.0"?>
<VTKFile type="UnstructuredGrid"  version="0.1"  >
<UnstructuredGrid>
<Piece  NumberOfPoints="15540" NumberOfCells="30546">
<Points>
<DataArray  type="Float64"  NumberOfComponents="3"  format="ascii">0 0 0  -0.5 -0.5 0  0.5 -0.5 0  0.5 0 0  0.5 0.5 0  -0.5 0.5 0  -0.5 0.0001 0  -0.5 -0.0001 0  0.5 0.1 0  0.5 -0.1 0  -0.5 -0.1 0  -0.5 0.1 0  -0.4900000000000277 -0.5 0  -0.4800000000000555 -0.5 0  -0.4700000000000832 -0.5 0  -0.4600000000001109 -0.5 0  -0.4500000000001387 -0.5 0  -0.4400000000001664 -0.5 0  -0.4300000000001942 -0.5 0  -0.4200000000002219 -0.5 0  -0.4100000000002497 -0.5 0  -0.4000000000002774 -0.5 0  -0.3900000000003052 -0.5 0  -0.3800000000003328 -0.5 0  -0.3700000000003606 -0.5 0  -0.3600000000003883 -0.5 0  -0.3500000000004161 -0.5 0  -0.3400000000004438 -0.5 0  -0.3300000000004716 -0.5 0  -0.3200000000004993 -0.5 0  -0.3100000000005271 -0.5 0  -0.3000000000005548 -0.5 0  -0.2900000000005825 -0.5 0  -0.2800000000006103 -0.5 0  -0.2700000000006381 -0.5 0  -0.2600000000006658 -0.5 0  -0.2500000000006935 -0.5 0  -0.2400000000007212 -0.5 0  -0.230000000000749 -0.5 0  -0.2200000000007767 -0.5 0  -0.2100000000008044 -0.5 0  -0.2000000000008322 -0.5 0  -0.19000000000086 -0.5 0  -0.1800000000008877 -0.5 0  -0.1700000000009154 -0.5 0  -0.1600000000009431 -0.5 0  -0.1500000000009709 -0.5 0  -0.1400000000009986 -0.5 0  -0.1300000000010264 -0.5 0  -0.1200000000010541 -0.5 0  -0.1100000000010818 -0.5 0  -0.1000000000011096 -0.5 0  -0.09000000000113734 -0.5 0  -0.08000000000116503 -0.5 0  -0.07000000000119283 -0.5 0  -0.06000000000122058 -0.5 0  -0.05000000000124827 -0.5 0  -0.04000000000127607 -0.5 0  -0.03000000000130376 -0.5 0  -0.02000000000133151 -0.5 0  -0.01000000000135925 -0.5 0  -1.376121439022882e-12 -0.5 0  0.009999999998640763 -0.5 0  0.01999999999866864 -0.5 0  0.02999999999869629 -0.5 0  0.03999999999872406 -0.5 0  0.04999999999875182 -0.5 0  0.05999999999877947 -0.5 0  0.06999999999880724 -0.5 0  0.079999999998835 -0.5 0  0.08999999999886266 -0.5 0  0.09999999999889042 -0.5 0  0.1099999999989182 -0.5 0  0.1199999999989459 -0.5 0  0.1299999999989737 -0.5 0  0.1399999999990014 -0.5 0  0.1499999999990291 -0.5 0  0.1599999999990568 -0.5 0  0.1699999999990847 -0.5 0  0.1799999999991124 -0.5 0  0.1899999999991401 -0.5 0  0.1999999999991678 -0.5 0  0.2099999999991955 -0.5 0  0.2199999999992234 -0.5 0  0.2299999999992511 -0.5 0  0.2399999999992788 -0.5 0  0.2499999999993066 -0.5 0  0.2599999999993342 -0.5 0  0.269999999999362 -0.5 0  0.2799999999993897 -0.5 0  0.2899999999994175 -0.5 0  0.2999999999994452 -0.5 0  0.3099999999994729 -0.5 0  0.3199999999995007 -0.5 0  0.3299999999995284 -0.5 0  0.3399999999995562 -0.5 0  0.3499999999995839 -0.5 0  0.3599999999996116 -0.5 0  0.3699999999996393 -0.5 0  0.379999999999667 -0.5 0  0.3899999999996949 -0.5 0  0.3999999999997226 -0.5 0  0.4099999999997503 -0.5 0  0.419999999999778 -0.5 0  0.4299999999998058 -0.5 0  0.4399999999998336 -0.5 0  0.4499999999998613 -0.5 0  0.4599999999998891 -0.5 0  0.4699999999999167 -0.5 0  0.4799999999999445 -0.5 0  0.4899999999999722 -0.5 0  0.5 -0.4902110204681464 0  0.5 -0.4804459958734807 0  0.5 -0.4707048677450883 0  0.5 -0.4609875815766065 0  0.5 -0.4512940759251849 0  0.5 -0.4416242912883993 0  0.5 -0.4319781678689807 0  0.5 -0.4223556545383647 0  0.5 -0.4127566896324213 0  0.5 -0.4031812128200121 0  0.5 -0.3936291733057916 0  0.5 -0.3841005081172659 0  0.5 -0.3745951585781932 0  0.5 -0.3651130778999337 0  0.5 -0.3556541993788045 0  0.5 -0.3462184677228392 0  0.5 -0.3368058273705318 0  0.5 -0.3274162224888609 0  0.5 -0.3180495969712945 0  0.5 -0.3087058944357755 0  0.5 -0.299385058222682 0  0.5 -0.2900870313927414 0  0.5 -0.2808117567250807 0  0.5 -0.2715591844628491 0  0.5 -0.2623292564012653 0  0.5 -0.253121909553727 0  0.5 -0.2439371050851549 0  0.5 -0.2347747685524501 0  0.5 -0.2256348634421331 0  0.5 -0.2165173209784076 0  0.5 -0.207422087829958 0  0.5 -0.1983491207029381 0  0.5 -0.1892983550950482 0  0.5 -0.1802697378305253 0  0.5 -0.1712632154965152 0  0.5 -0.1622787344187354 0  0.5 -0.1533162406595534 0  0.5 -0.1443756800160514 0  0.5 -0.1354569980180493 0  0.5 -0.1265601399261414 0  0.5 -0.1176850622761093 0  0.5 -0.1088317009011999 0  0.5 -0.09166666666668973 0  0.5 -0.08333333333337943 0  0.5 -0.07500000000006915 0  0.5 -0.06666666666675886 0  0.5 -0.05833333333344858 0  0.5 -0.05000000000013693 0  0.5 -0.04166666666678191 0  0.5 -0.03333333333342643 0  0.5 -0.02500000000006916 0  0.5 -0.01666666666671188 0  0.5 -0.00833333333335548 0  0.5 0.008333333333318314 0  0.5 0.01666666666663358 0  0.5 0.02499999999994162 0  0.5 0.03333333333325101 0  0.5 0.04166666666655769 0  0.5 0.04999999999986843 0  0.5 0.05833333333322258 0  0.5 0.06666666666657715 0  0.5 0.07499999999993352 0  0.5 0.08333333333328992 0  0.5 0.09166666666664541 0  0.5 0.1088317009011616 0  0.5 0.1176850622760307 0  0.5 0.1265601399260203 0  0.5 0.1354569980178909 0  0.5 0.1443756800158549 0  0.5 0.153316240659315 0  0.5 0.1622787344184454 0  0.5 0.1712632154961752 0  0.5 0.1802697378301332 0  0.5 0.1892983550946039 0  0.5 0.1983491207024433 0  0.5 0.2074220878294123 0  0.5 0.216517320977811 0  0.5 0.2256348634414833 0  0.5 0.2347747685517479 0  0.5 0.2439371050844009 0  0.5 0.2531219095529224 0  0.5 0.2623292564004089 0  0.5 0.2715591844619371 0  0.5 0.2808117567241139 0  0.5 0.290087031391723 0  0.5 0.2993850582216101 0  0.5 0.3087058944347426 0  0.5 0.3180495969703129 0  0.5 0.3274162224879299 0  0.5 0.3368058273696494 0  0.5 0.3462184677220051 0  0.5 0.3556541993780186 0  0.5 0.3651130778991989 0  0.5 0.3745951585775107 0  0.5 0.3841005081166359 0  0.5 0.3936291733052134 0  0.5 0.4031812128194852 0  0.5 0.412756689631945 0  0.5 0.4223556545379392 0  0.5 0.431978167868607 0  0.5 0.4416242912880781 0  0.5 0.4512940759249164 0  0.5 0.4609875815763912 0  0.5 0.4707048677449264 0  0.5 0.4804459958733726 0  0.5 0.4902110204680924 0  0.4900000000000277 0.5 0  0.4800000000000555 0.5 0  0.4700000000000832 0.5 0  0.4600000000001109 0.5 0  0.4500000000001387 0.5 0  0.4400000000001664 0.5 0  0.4300000000001942 0.5 0  0.4200000000002219 0.5 0  0.4100000000002497 0.5 0  0.4000000000002774 0.5 0  0.3900000000003052 0.5 0  0.3800000000003328 0.5 0  0.3700000000003606 0.5 0  0.3600000000003883 0.5 0  0.3500000000004161 0.5 0  0.3400000000004438 0.5 0  0.3300000000004716 0.5 0  0.3200000000004993 0.5 0  0.3100000000005271 0.5 0  0.3000000000005548 0.5 0  0.2900000000005825 0.5 0  0.2800000000006103 0.5 0  0.2700000000006381 0.5 0  0.2600000000006658 0.5 0  0.2500000000006935 0.5 0  0.2400000000007212 0.5 0  0.230000000000749 0.5 0  0.2200000000007767 0.5 0  0.2100000000008044 0.5 0  0.2000000000008322 0.5 0  0.19000000000086 0.5 0  0.1800000000008877 0.5 0  0.1700000000009154 0.5 0  0.1600000000009431 0.5 0  0.1500000000009709 0.5 0  0.1400000000009986 0.5 0  0.1300000000010264 0.5 0  0.1200000000010541 0.5 0  0.1100000000010818 0.5 0  0.1000000000011096 0.5 0  0.09000000000113734 0.5 0  0.08000000000116503 0.5 0  0.07000000000119283 0.5 0  0.06000000000122058 0.5 0  0.05000000000124827 0.5 0  0.04000000000127607 0.5 0  0.03000000000130376 0.5 0  0.02000000000133151 0.5 0  0.01000000000135925 0.5 0  1.376121439022882e-12 0.5 0  -0.009999999998640763 0.5 0  -0.01999999999866864 0.5 0  -0.02999999999869629 0.5 0  -0.03999999999872406 0.5 0  -0.04999999999875182 0.5 0  -0.05999999999877947 0.5 0  -0.06999999999880724 0.5 0  -0.079999999998835 0.5 0  -0.08999999999886266 0.5 0  -0.09999999999889042 0.5 0  -0.1099999999989182 0.5 0  -0.1199999999989459 0.5 0  -0.1299999999989737 0.5 0  -0.1399999999990014 0.5 0  -0.1499999999990291 0.5 0  -0.1599999999990568 0.5 0  -0.1699999999990847 0.5 0  -0.1799999999991124 0.5 0  -0.1899999999991401 0.5 0  -0.1999999999991678 0.5 0  -0.2099999999991955 0.5 0  -0.2199999999992234 0.5 0  -0.2299999999992511 0.5 0  -0.2399999999992788 0.5 0  -0.2499999999993066 0.5 0  -0.2599999999993342 0.5 0  -0.269999999999362 0.5 0  -0.2799999999993897 0.5 0  -0.2899999999994175 0.5 0  -0.2999999999994452 0.5 0  -0.3099999999994729 0.5 0  -0.3199999999995007 0.5 0  -0.3299999999995284 0.5 0  -0.3399999999995562 0.5 0  -0.3499999999995839 0.5 0  -0.3599999999996116 0.5 0  -0.3699999999996393 0.5 0  -0.379999999999667 0.5 0  -0.3899999999996949 0.5 0  -0.3999999999997226 0.5 0  -0.4099999999997503 0.5 0  -0.419999999999778 0.5 0  -0.4299999999998058 0.5 0  -0.4399999999998336 0.5 0  -0.4499999999998613 0.5 0  -0.4599999999998891 0.5 0  -0.4699999999999167 0.5 0  -0.4799999999999445 0.5 0  -0.4899999999999722 0.5 0  -0.5 0.4902110204681464 0  -0.5 0.4804459958734807 0  -0.5 0.4707048677450883 0  -0.5 0.4609875815766065 0  -0.5 0.4512940759251849 0  -0.5 0.4416242912883993 0  -0.5 0.4319781678689807 0  -0.5 0.4223556545383647 0  -0.5 0.4127566896324213 0  -0.5 0.4031812128200121 0  -0.5 0.3936291733057916 0  -0.5 0.3841005081172659 0  -0.5 0.3745951585781932 0  -0.5 0.3651130778999337 0  -0.5 0.3556541993788045 0  -0.5 0.3462184677228392 0  -0.5 0.3368058273705318 0  -0.5 0.3274162224888609 0  -0.5 0.3180495969712945 0  -0.5 0.3087058944357755 0  -0.5 0.299385058222682 0  -0.5 0.2900870313927414 0  -0.5 0.2808117567250807 0  -0.5 0.2715591844628491 0  -0.5 0.2623292564012653 0  -0.5 0.253121909553727 0  -0.5 0.2439371050851549 0  -0.5 0.2347747685524501 0  -0.5 0.2256348634421331 0  -0.5 0.2165173209784076 0  -0.5 0.207422087829958 0  -0.5 0.1983491207029381 0  -0.5 0.1892983550950482 0  -0.5 0.1802697378305253 0  -0.5 0.1712632154965152 0  -0.5 0.1622787344187354 0  -0.5 0.1533162406595534 0  -0.5 0.1443756800160514 0  -0.5 0.1354569980180493 0  -0.5 0.1265601399261414 0  -0.5 0.1176850622761093 0  -0.5 0.1088317009011999 0  -0.5 0.09167500000001694 0  -0.5 0.08335000000003931 0  -0.5 0.07502500000006167 0  -0.5 0.06670000000008947 0  -0.5 0.05837500000011001 0  -0.5 0.0500500000001328 0  -0.5 0.0417250000001127 0  -0.5 0.03340000000008944 0  -0.5 0.02507500000006573 0  -0.5 0.01675000000004653 0  -0.5 0.008425000000027341 
[...]
<PointData  Scalars="f_25"> 
<DataArray  type="Float64"  Name="f_25"  format="ascii">1.0000000000000000e+00  1.3227201283593458e-04  1.2993329068359485e-01  2.1937852465031285e-02  4.6489531019570707e-02  8.7201905237710626e-04  1.0000000000000000e+00  1.0000000000000000e+00  2.4984381869054998e-02  2.3154719879405122e-02  1.2057525402361347e-03  1.2021035411390176e-03  1.3364950407925331e-04  1.5465222202010377e-04  1.8992251132411006e-04  2.3072907887788447e-04  2.7134188259992509e-04  3.1128854978473321e-04  3.5000357407809538e-04  3.9000060533002248e-04  4.2859228642655228e-04  4.6836640883248523e-04  5.0978012567415092e-04  5.5596478517318877e-04  6.0450730113730043e-04  6.5662356312586208e-04  7.1373141627833570e-04  7.7711021239022164e-04  8.5024433560639901e-04  9.2853857087630328e-04  1.0155887860469400e-03  1.1131965151636998e-03  1.2166915884859666e-03  1.3300624549578684e-03  1.4572410961886367e-03  1.5899451503444335e-03  1.7359077989774750e-03  1.8934242427192064e-03  2.0627925367503685e-03  2.2489711757220686e-03  2.4421173152560983e-03  2.6546415618694868e-03  2.8776337252944379e-03  3.1155393589584017e-03  3.3674958221007680e-03  3.6369174937391853e-03  3.9207436327205599e-03  4.2178660832291560e-03  4.5309071224728104e-03  4.8606518365977812e-03  5.2050173572036670e-03  5.5612619010161433e-03  5.9350161586001404e-03  6.3243714751478304e-03  6.7223854521081929e-03  7.1382634400121783e-03  7.5640257062637994e-03  8.0079568874427531e-03  8.4579703066479089e-03  8.9183703791453715e-03  9.3930130927762680e-03  9.8740336823259275e-03  1.0365327425302136e-02  1.0863612087559591e-02  1.1373613236834760e-02  1.1892948513672265e-02  1.2407017680666729e-02  1.2927365524685146e-02  1.3457111281040973e-02  1.3993233714155827e-02  1.4530475284431757e-02  1.5065971140274248e-02  1.5615584362275097e-02  1.6173201164211729e-02  1.6716820998726730e-02  1.7271310438338367e-02  1.7834770824707819e-02  1.8386396067073183e-02  1.8958185994561613e-02  1.9521384733036069e-02  2.0092220157255966e-02  2.0676577494253213e-02  2.1269884808784941e-02  2.1872842787543739e-02  2.2487780923310788e-02  2.3103096190514347e-02  2.3741717953050422e-02  2.4406524362768904e-02  2.5083135713313658e-02  2.5795961299852309e-02  2.6553723291806625e-02  2.7340089991549056e-02  2.8190783168150869e-02  2.9084110544425033e-02  3.0043345511642870e-02  3.1093050074619450e-02  3.2256261971597963e-02  3.3531272371170269e-02  3.4962167628634716e-02  3.6614417835710220e-02  3.8481721667027409e-02  4.0683401388524498e-02  4.3279591550309235e-02  4.6488324663201200e-02  5.0344287024026775e-02  5.5282806255412952e-02  6.1712807643272485e-02  7.0168380272225161e-02  8.1305294934178790e-02  9.5783103776823128e-02  1.1428895687157789e-01  1.1923225024795713e-01  1.0021693839779935e-01  8.4982419186398900e-02  7.3103068681481212e-02  6.4554375613084483e-02  5.8254616049473636e-02  5.3582208394112554e-02  4.9992429182486378e-02  4.7160769940878575e-02  4.4900884087787682e-02  4.3012679355426214e-02  4.1452615569175358e-02  4.0111263862938479e-02  3.8980289170334449e-02  3.7960874927609412e-02  3.7039531714558496e-02  3.6235735335648223e-02  3.5478241530285261e-02  3.4757782593787492e-02  3.4100592001071878e-02  3.3440023509892537e-02  3.2840807751569376e-02  3.2239121527041767e-02  3.1653299816504055e-02  3.1086339960500895e-02  3.0540089659228956e-02  3.0014426775680361e-02  2.9483633760848848e-02  2.8979569237915854e-02  2.8458506030030247e-02  2.7955042531177778e-02  2.7463517558720174e-02  2.6989620421859907e-02  2.6536332641603367e-02  2.6080913057447176e-02  2.5654765355321744e-02  2.5235845896128921e-02  2.4836468214021901e-02  2.4456397644670069e-02  2.4081262204705134e-02  2.3765758634918754e-02  2.3457081897233389e-02  2.2915885142324521e-02  2.2692735960025509e-02  2.2492018258247464e-02  2.2328883603800996e-02  2.2176829057028499e-02  2.2052453407173152e-02  2.1969811047107039e-02  2.1905649149429385e-02  2.1852427419722324e-02  2.1868700833101318e-02  2.1898463601392186e-02  2.2042280044252786e-02  2.2155752689721760e-02  2.2299598426384765e-02  2.2486362819345108e-02  2.2692366716491282e-02  2.2935886091223313e-02  2.3214083501228951e-02  2.3514122528399836e-02  2.3826460559565575e-02  2.4196334979537940e-02  2.4580498910727309e-02  2.5463022137527210e-02  2.5953773734942447e-02  2.6458333870232210e-02  2.7016311246303167e-02  2.7590020365097789e-02  2.8182052740986618e-02  2.8799121458247454e-02  2.9427738058554032e-02  3.0080015360280439e-02  3.0733089719655785e-02  3.1408406950487619e-02  3.2095166290010323e-02  3.2796188568855140e-02  3.3503423905334687e-02  3.4202333583632227e-02  3.4892212284688272e-02  3.5577049992490381e-02  3.6266172351138833e-02  3.6957198674253719e-02  3.7643370252454796e-02  3.8312470465883028e-02  3.8963380878405611e-02  3.9595188183356153e-02  4.0216883732547330e-02  4.0804920982017288e-02  4.1375428349971405e-02  4.1933057170422762e-02  4.2442616389799390e-02  4.2939199636305388e-02  4.3408924022683218e-02  4.3857004214027016e-02  4.4265007751603816e-02  4.4641643898335831e-02  4.4985758858954741e-02  4.5295744584940519e-02  4.5574463278736134e-02  4.5811292523105583e-02  4.6022718895472180e-02  4.6190821794244441e-02  4.6340660176694588e-02  4.6408300211963141e-02  4.6471772687341706e-02  4.6220152268972782e-02  4.5679351775377373e-02  4.5025607713231240e-02  4.4344316800460540e-02  4.3673267697143352e-02  4.3038491402870846e-02  4.2453871117596027e-02  4.1916547568065371e-02  4.1413595433155211e-02  4.0946803856893012e-02  4.0516337191272241e-02  4.0118392428156097e-02  3.9736752902364593e-02  3.9378842345769362e-02  3.9033330359719773e-02  3.8694198345120591e-02  3.8364202889480427e-02  3.8037385610040289e-02  3.7707180428483839e-02  3.7364190882155916e-02  3.7017070006760536e-02  3.6651476569232025e-02  3.6270998029356606e-02  3.5863418879010157e-02  3.5435501112434695e-02  3.4984442168425868e-02  3.4498514742598574e-02  3.3985328808081576e-02  3.3427038663847546e-02  3.2844752420958898e-02  3.2223605554936668e-02  3.1567701300200306e-02  3.0869730919386256e-02  3.0135355394787722e-02  2.9366513938076013e-02  2.8563205498007817e-02  2.7727460172590063e-02  2.6861281019517031e-02  2.5962612226440040e-02  2.5021860605942647e-02  2.4069990720152607e-02  2.3097052045706556e-02  2.2109973551591642e-02  2.1113823387080205e-02  2.0097335089285379e-02  1.9090072517827097e-02  1.8063577337941839e-02  1.7043652231772413e-02  1.6039285123319980e-02  1.5051486415832965e-02  1.4082326245708262e-02  1.3117188328030032e-02  1.2196382916969372e-02  1.1292450809751241e-02  1.0416148551250387e-02  9.5848904940719192e-03  8.7779626347097503e-03  8.0108990327892472e-03  7.2859301812874385e-03  6.5964818122386526e-03  5.9548240702607174e-03  5.3467262863093222e-03  4.7838742813983140e-03  4.2594195298807395e-03  3.7753582448098026e-03  3.3279754195529119e-03  2.9139398669983077e-03  2.5428825568906137e-03  2.1998019661148590e-03  1.8919070130953898e-03  1.6133555771216863e-03  1.3654738740653224e-03  1.1421488452774476e-03  9.4679989891060926e-04  7.7227393645840710e-04  6.2066075364196338e-04  4.9131098760478204e-04  3.7879368869368529e-04  2.8514902896627730e-04  2.0701096916453333e-04  1.4438769211284230e-04  9.6636407146886803e-05  6.2332541487119234e-05  4.1345826203494025e-05  3.2437474139813479e-05  3.4682795151254191e-05  4.7479129531656699e-05  6.9680967357544081e-05  1.0067873877025000e-04  1.3942315325447848e-04  1.8688526049394485e-04  2.4273021072031520e-04  3.0827253677370123e-04  3.8188099959283886e-04  4.6617982023948337e-04  5.5760349386347696e-04  6.5659899477913850e-04  7.5285534448327890e-04  8.3218818205212704e-04  8.7218528987928934e-04  8.6948271607282742e-04  8.6809715012649768e-04  8.5860745695838373e-04  8.5149869335859722e-04  8.4228147593277600e-04  8.3050265256629711e-04  8.1849754296995291e-04  8.0294650931747580e-04  7.8771433664210483e-04  7.7070199096511438e-04  7.5214701285564612e-04  7.3149497579897207e-04  7.0935884557078830e-04  6.8616708993389042e-04  6.6166067663404155e-04  6.3600005853029287e-04  6.0865988082541716e-04  5.8004506499561897e-04  5.5094464231662311e-04  5.2127385234949670e-04  4.9014262252708299e-04  4.5891056186163413e-04  4.2751593321021668e-04  3.9560315411363999e-04  3.6423944720642682e-04  3.3449220547960857e-04  3.0423677885901596e-04  2.7461856595633255e-04  2.4606404981326635e-04  2.1824451126119281e-04  1.9298528827619733e-04  1.6993587145917895e-04  1.4897105154949606e-04  1.3193380013036383e-04  1.2137410627760554e-04  1.1872580331003046e-04  1.2997654742528706e-04  1.6502336599051779e-04  2.4067193849507904e-04  3.9522370032107754e-04  6.8219429469749049e-04  2.1118487104401962e-03  3.6957855716670987e-03  6.4944476713957467e-03  1.1262928803030238e-02  1.9741672237807914e-02  3.4724055633716173e-02  6.0784231624225651e-02  1.0622312530653251e-01  1.8493098206601918e-01  3.2702573529507922e-01  5.7160169661186588e-01  1.0000000000000000e+00  1.0000000000000000e+00  1.0000000000000000e+00  1.0000000000000000e+00  1.0000000000000000e+00  1.0000000000000000e+00  1.0000000000000000e+00  1.0000000000000000e+00  9.9999999999999989e-01  1.0000000000000000e+00  1.0000000000000000e+00  1.0000000000000000e+00  1.0000000000000000e+00  1.0000000000000000e+00  1.0000000000000000e+00  1.0000000000000000e+00  1.0000000000000000e+00  1.0000000000000000e+00  1.0000000000000000e+00  1.0000000000000000e+00  1.0000000000000000e+00  9.9999999999999989e-01  1.0000000000000000e+00  1.0000000000000000e+00  1.0000000000000000e+00  1.0000000000000000e+00  1.0000000000000000e+00  1.0000000000000000e+00  1.0000000000000000e+00  1.0000000000000000e+00  1.0000000000000000e+00  1.0000000000000000e+00  1.0000000000000000e+00  1.0000000000000000e+00  1.0000000000000000e+00  9.9999999999999989e-01  1.0000000000000000e+00  1.0000000000000000e+00  1.0000000000000000e+00  1.0000000000000000e+00  1.0000000000000000e+00  1.0000000000000000e+00  1.0000000000000000e+00  1.0000000000000000e+00  1.0000000000000000e+00  1.0000000000000000e+00  1.0000000000000000e+00  1.0000000000000000e+00  1.0000000000000000e+00  1.0000000000000000e+00  1.0000000000000000e+00  1.0000000000000000e+00  1.0000000000000000e+00  1.0000000000000000e+00  1.0000000000000000e+00  1.0000000000000000e+00  1.0000000000000000e+00  1.0000000000000000e+00  1.0000000000000000e+00  1.0000000000000000e+00  1.0000000000000000e+00  1.0000000000000000e+00  1.0000000000000000e+00  1.0000000000000000e+00  1.0000000000000000e+00  1.0000000000000000e+00  1.0000000000000000e+00  1.0000000000000000e+00  1.0000000000000000e+00  1.0000000000000000e+00  1.0000000000000000e+00  1.0000000000000000e+00  1.0000000000000000e+00  1.0000000000000000e+00  1.0000000000000000e+00  1.0000000000000000e+00  1.0000000000000000e+00  1.0000000000000000e+00  1.0000000000000000e+00  1.0000000000000000e+00  9.9999999999999989e-01  1.0000000000000000e+00  1.0000000000000000e+00  1.0000000000000000e+00  1.0000000000000000e+00  1.0000000000000000e+00  1.0000000000000000e+00  1.0000000000000000e+00  1.0000000000000000e+00  1.0000000000000000e+00  1.0000000000000000e+00  1.0000000000000000e+00  1.0000000000000000e+00  1.0000000000000000e+00  1.0000000000000000e+00  1.0000000000000000e+00  1.0000000000000000e+00  1.0000000000000000e+00  1.0000000000000000e+00  9.9999999999999989e-01  1.0000000000000000e+00  1.0000000000000000e+00  1.0000000000000000e+00  1.0000000000000000e+00  9.9999999999999989e-01  1.0000000000000000e+00  1.0000000000000000e+00  1.0000000000000000e+00  1.0000000000000000e+00  9.9999999999999989e-01  5.7157113932440118e-01  3.2704093391469480e-01  1.8489427919087753e-01  1.0624102151850746e-01  6.0791852294500223e-02  3.4729973307008187e-02  1.9749904241237133e-02  1.1265803439581789e-02  6.4996516952264966e-03  3.6996620322901881e-03  2.1155623335686845e-03  6.8637554041697574e-04  3.9997843661408234e-04  2.4573866400100377e-04  1.7123159964312450e-04  1.3680979424583389e-04  1.2589637706056502e-04  1.2854493303403314e-04  1.3877614268762928e-04  1.5470575320688739e-04  1.7396979482776144e-04  1.9470871688820419e-04  2.1616721425929270e-04  2.3915989969860258e-04  2.6160466787103904e-04  2.8341938607621947e-04  3.0461872884244250e-04  3.2320616668816309e-04  3.4136323835753723e-04  3.5754774813259049e-04  3.7118818339826212e-04  3.8255192480271153e-04  3.9102371849483692e-04  3.9601370378148195e-04  3.9733888904166430e-04  3.9542476075947821e-04  3.9020787912461880e-04  3.8146131082124606e-04  3.6856578411506265e-04  3.5219439267850680e-04  3.3343642273674789e-04  3.1130665985320259e-04  2.8679216841837453e-04  2.6035974335682959e-04  2.3227256781251825e-04  2.0431028468867023e-04  1.7868556558931476e-04  1.5386841186439517e-04  1.3175082753762735e-04  1.1562234955482923e-04  1.0582228897970917e-04  1.1194371108880625e-04  1.2335052439082538e-04  1.2013548970329524e-03  1.2097880527043743e-03  1.2172860881122659e-03  1.2225364737280672e-03  1.2278030842667682e-03  1.2544715362414807e-03  1.2643747743996843e-03  1.2619954748967468e-03  1.2895040122614962e-03  1.3179110088745827e-03  1.3116118700966892e-03  1.3419393302980911e-03  1.3686113526777774e-03  1.3835206721744828e-03  1.3976123855119007e-03  1.4029757941253738e-03  1.4151968455294343e-03  1.4172141488500236e-03  1.4472267334803507e-03  1.4605764071799444e-03  1.4578682851839077e-03  1.4636789679150456e-03  1.4818477624458874e-03  1.4834426267924200e-03  1.4707025993696576e-03  1.4701314687093137e-03  1.4656300339578878e-03  1.4517004318608769e-03  1.4537367151272775e-03  1.4353048838312316e-03  1.4147238283948971e-03  1.4067287476027402e-03  1.3958836817365011e-03  1.3757010806941658e-03  1.3833144312820069e-03  1.4075499090862198e-03  1.3988525573320725e-03  1.4560660953430427e-03  1.5269198236850987e-03  1.6207194721593839e-03  1.8127650900261244e-03  2.0509591676766974e-03  2.3784524951256242e-03  2.8636853255568761e-03  3.5019110098034110e-03  4.3737255218944289e-03  5.5449315097162366e-03  7.0512548348717818e-03  8.9606334143267231e-03  1.1373103094525426e-02  1.4348299754586371e-02  1.7935169570704127e-02  2.2169380634766221e-02  2.6823833957784649e-02  3.1881835198602590e-02  3.7201015103098062e-02  4.2416494726255076e-02  4.7244735614564923e-02  5.1534106140098387e-02  5.4963206609098147e-02  5.7448959364713260e-02  5.9011987854530060e-02  5.9701074184797573e-02  5.9646581254637128e-02  5.8980663494387880e-02  5.7862182590373339e-02  5.6463026417465235e-02  5.4857792170606774e-02  5.3167538163130690e-02  5.1429906654448257e-02  4.9773394849964334e-02  4.8168848933247375e-02  4.6654617436010584e-02  4.5247583838284991e-02  4.3956232343399050e-02  4.2766702853226639e-02  4.1677035449041208e-02  4.0701772326702218e-02  3.9816958535075726e-02  3.9018061385852135e-02  3.8287268876448406e-02  3.7619995592332048e-02  3.7015937455821074e-02  3.6463793357643777e-02  3.5947169830486028e-02  3.5479775038554089e-02  3.5043688366379180e-02  3.4641273451979003e-02  3.4259214413851741e-02  3.3888992535179970e-02  3.3541521428596982e-02  3.3205661910394493e-02  3.2868806252760917e-02  3.2533949324631432e-02  3.2195311735221693e-02  3.1858472858434891e-02  3.1514891851108388e-02  3.1157721575262479e-02  3.0787678267709548e-02  3.0400296574365104e-02  2.9996283582058920e-02  2.9572618282345451e-02  2.9130341173385518e-02  2.8662951114900193e-02  2.8170110280114933e-02  2.7658998388737019e-02  2.7124714954554336e-02  2.6583537711786547e-02  2.6047328258794526e-02  2.5552551824894403e-02  2.5164140966001579e-02  1.2050665168825687e-03  1.2132092779502666e-03  1.2207980913637190e-03  1.2260438723633044e-03  1.2312944960212221e-03  1.2581783771127353e-03  1.2672349942413157e-03  1.2643807224385231e-03  1.2903390214834311e-03  1.3169993278427216e-03  1.3113392520919382e-03  1.3373794955938189e-03  1.3620214464683798e-03  1.3746157594725747e-03  1.3863802064270872e-03  1.3901108665859709e-03  1.3989863980795247e-03  1.3967396939697035e-03  1.4262204230150854e-03  1.4419174717567281e-03  1.4382504602128573e-03  1.4441147281078813e-03  1.4589381662456439e-03  1.4600209610856202e-03  1.4459167757107938e-03  1.4449573136436013e-03  1.4411196809940826e-03  1.4275681415951598e-03  1.4293289162866111e-03  1.4118887905467238e-03  1.3912838043781582e-03  1.3822973292964295e-03  1.3699287902177388e-03  1.3488860457749284e-03  1.3547313224538636e-03  1.3765398532871191e-03  1.3621953720386862e-03  1.4118965763590171e-03  1.4708934291421834e-03  1.5498246426333797e-03  1.7230352501093821e-03  1.9336593154243320e-03  2.2276225709244660e-03  2.6704704007872860e-03  3.2521619157306466e-03  4.0538295925918238e-03  5.1382840419402064e-03  6.5400202416131059e-03  8.3258710580219174e-03  1.0597003019132580e-02  1.3412915115606130e-02  1.6826642516682033e-02  2.0873339934765946e-02  2.5351540707609987e-02  3.0248331169608168e-02  3.5432340880302234e-02  4.0564033439497951e-02  4.5384226635241311e-02  4.9726222377017827e-02  5.3288994349213782e-02  5.5978483685242018e-02  5.7785657898465528e-02  5.8754457448522424e-02  5.8992245195150367e-02  5.8599916449407062e-02  5.7742936612211013e-02  5.6578040364196898e-02  5.5173731410743672e-02  5.3650374359293755e-02  5.2043308005770728e-02  5.0496102040885067e-02  4.8976536237744492e-02  4.7516554162700265e-02  4.6152031316505179e-02  4.4888099040245717e-02  4.3713107323113523e-02  4.2626751168180231e-02  4.1645387338831205e-02  4.0747157608590510e-02  3.9930933678061685e-02  3.9177153849338675e-02  3.8480574520545208e-02  3.7844610612455074e-02  3.7255012851500881e-02  3.6698979028212494e-02  3.6186209973066319e-02  3.5701010655118458e-02  3.5246938924641986e-02  3.4808714056904201e-02  3.4376383342371586e-02  3.3962675289979989e-02  3.3555348964453037e-02  3.3141248646526927e-02  3.2724985595210421e-02  3.2297898276291329e-02  3.1867806331712815e-02  3.1426207491304176e-02  3.0963995735744751e-02  3.0483954436595937e-02  2.9980090777995464e-02  2.9454166413130839e-02  2.8905297266863680e-02  2.8332754317946969e-02  2.7733010667212038e-02  2.7105710327142523e-02  2.6457716786085602e-02  2.5788498410664353e-02  2.5113255981766086e-02  2.4449120239452414e-02  2.3844184154135469e-02  2.3369699634095471e-02  7.1758262274108775e-01  5.1719987737056783e-01  3.6254078886322344e-01  2.6213961268406727e-01  1.9455606734823969e-01  1.4800079769202593e-01  1.1623616826827868e-01  9.4825723262029718e-02  7.9472582559890051e-02  6.8641615441241408e-02  6.0661986216405221e-02  5.4616168284276817e-02  5.0058157799121747e-02  4.6525842779309899e-02  4.3747428824577141e-02  4.1519918048393965e-02  3.9740860839546241e-02  3.8284189794997717e-02  3.7078368111225182e-02  3.6092284540200838e-02  3.5265708173193230e-02  3.4561346235047058e-02  3.3976180525951222e-02  3.3473102169841229e-02  3.3043414864257367e-02  3.2678345648474431e-02  3.2344131801842223e-02  3.2062910781215745e-02  3.1802917841921151e-02  3.1563634391579762e-02  3.1349814933365826e-02  3.1151865542969583e-02  3.0954376181396504e-02  3.0753719147515127e-02  3.0551549884895762e-02  3.0338839165439616e-02  3.0125492885746535e-02  2.9894603797271619e-02  2.9647902178220456e-02  2.9384444479953756e-02  2.9099507309770678e-02  2.8791317896250206e-02  2.8452993680649758e-02  2.8087520405712739e-02  2.7683634126113944e-02  2.7248075120289837e-02  2.6779386604733585e-02  2.6267795288765633e-02  2.5722680892533694e-02  2.5134787796552982e-02  2.4515107332828145e-02  2.3876111281636355e-02  2.3233511130779805e-02  2.2640169438115587e-02  2.2154555637763789e-02  7.3992016963507126e-03  1.7823601138872730e-04  3.1943849606881458e-02  3.8744412941067750e-02  2.3332051319141078e-02  8.5739951945236243e-04  2.4920624427498850e-04  4.0973515630458014e-02  3.5333007275136115e-02  1.7521178943391835e-02  1.9611292566956724e-03  1.0343177407615033e-04  3.5334569478709249e-02  3.9584347462615098e-02  6.7534886031951728e-03  1.7480760387785841e-04  4.1194951767944431e-02  2.7591993203792162e-02  2.7930850962893311e-04  7.3954313360005174e-03  3.7989565219321987e