<?xml version="1.0"?>
<VTKFile type="UnstructuredGrid"  version="0.1"  >
<UnstructuredGrid>
<Piece  NumberOfPoints="15540" NumberOfCells="30546">
<Points>
<DataArray  type="Float64"  NumberOfComponents="3"  format="ascii">0 0 0  -0.5 -0.5 0  0.5 -0.5 0  0.5 0 0  0.5 0.5 0  -0.5 0.5 0  -0.5 0.0001 0  -0.5 -0.0001 0  0.5 0.1 0  0.5 -0.1 0  -0.5 -0.1 0  -0.5 0.1 0  -0.4900000000000277 -0.5 0  -0.4800000000000555 -0.5 0  -0.4700000000000832 -0.5 0  -0.4600000000001109 -0.5 0  -0.4500000000001387 -0.5 0  -0.4400000000001664 -0.5 0  -0.4300000000001942 -0.5 0  -0.4200000000002219 -0.5 0  -0.4100000000002497 -0.5 0  -0.4000000000002774 -0.5 0  -0.3900000000003052 -0.5 0  -0.3800000000003328 -0.5 0  -0.3700000000003606 -0.5 0  -0.3600000000003883 -0.5 0  -0.3500000000004161 -0.5 0  -0.3400000000004438 -0.5 0  -0.3300000000004716 -0.5 0  -0.3200000000004993 -0.5 0  -0.3100000000005271 -0.5 0  -0.3000000000005548 -0.5 0  -0.2900000000005825 -0.5 0  -0.2800000000006103 -0.5 0  -0.2700000000006381 -0.5 0  -0.2600000000006658 -0.5 0  -0.2500000000006935 -0.5 0  -0.2400000000007212 -0.5 0  -0.230000000000749 -0.5 0  -0.2200000000007767 -0.5 0  -0.2100000000008044 -0.5 0  -0.2000000000008322 -0.5 0  -0.19000000000086 -0.5 0  -0.1800000000008877 -0.5 0  -0.1700000000009154 -0.5 0  -0.1600000000009431 -0.5 0  -0.1500000000009709 -0.5 0  -0.1400000000009986 -0.5 0  -0.1300000000010264 -0.5 0  -0.1200000000010541 -0.5 0  -0.1100000000010818 -0.5 0  -0.1000000000011096 -0.5 0  -0.09000000000113734 -0.5 0  -0.08000000000116503 -0.5 0  -0.07000000000119283 -0.5 0  -0.06000000000122058 -0.5 0  -0.05000000000124827 -0.5 0  -0.04000000000127607 -0.5 0  -0.03000000000130376 -0.5 0  -0.02000000000133151 -0.5 0  -0.01000000000135925 -0.5 0  -1.376121439022882e-12 -0.5 0  0.009999999998640763 -0.5 0  0.01999999999866864 -0.5 0  0.02999999999869629 -0.5 0  0.03999999999872406 -0.5 0  0.04999999999875182 -0.5 0  0.05999999999877947 -0.5 0  0.06999999999880724 -0.5 0  0.079999999998835 -0.5 0  0.08999999999886266 -0.5 0  0.09999999999889042 -0.5 0  0.1099999999989182 -0.5 0  0.1199999999989459 -0.5 0  0.1299999999989737 -0.5 0  0.1399999999990014 -0.5 0  0.1499999999990291 -0.5 0  0.1599999999990568 -0.5 0  0.1699999999990847 -0.5 0  0.1799999999991124 -0.5 0  0.1899999999991401 -0.5 0  0.1999999999991678 -0.5 0  0.2099999999991955 -0.5 0  0.2199999999992234 -0.5 0  0.2299999999992511 -0.5 0  0.2399999999992788 -0.5 0  0.2499999999993066 -0.5 0  0.2599999999993342 -0.5 0  0.269999999999362 -0.5 0  0.2799999999993897 -0.5 0  0.2899999999994175 -0.5 0  0.2999999999994452 -0.5 0  0.3099999999994729 -0.5 0  0.3199999999995007 -0.5 0  0.3299999999995284 -0.5 0  0.3399999999995562 -0.5 0  0.3499999999995839 -0.5 0  0.3599999999996116 -0.5 0  0.3699999999996393 -0.5 0  0.379999999999667 -0.5 0  0.3899999999996949 -0.5 0  0.3999999999997226 -0.5 0  0.4099999999997503 -0.5 0  0.419999999999778 -0.5 0  0.4299999999998058 -0.5 0  0.4399999999998336 -0.5 0  0.4499999999998613 -0.5 0  0.4599999999998891 -0.5 0  0.4699999999999167 -0.5 0  0.4799999999999445 -0.5 0  0.4899999999999722 -0.5 0  0.5 -0.4902110204681464 0  0.5 -0.4804459958734807 0  0.5 -0.4707048677450883 0  0.5 -0.4609875815766065 0  0.5 -0.4512940759251849 0  0.5 -0.4416242912883993 0  0.5 -0.4319781678689807 0  0.5 -0.4223556545383647 0  0.5 -0.4127566896324213 0  0.5 -0.4031812128200121 0  0.5 -0.3936291733057916 0  0.5 -0.3841005081172659 0  0.5 -0.3745951585781932 0  0.5 -0.3651130778999337 0  0.5 -0.3556541993788045 0  0.5 -0.3462184677228392 0  0.5 -0.3368058273705318 0  0.5 -0.3274162224888609 0  0.5 -0.3180495969712945 0  0.5 -0.3087058944357755 0  0.5 -0.299385058222682 0  0.5 -0.2900870313927414 0  0.5 -0.2808117567250807 0  0.5 -0.2715591844628491 0  0.5 -0.2623292564012653 0  0.5 -0.253121909553727 0  0.5 -0.2439371050851549 0  0.5 -0.2347747685524501 0  0.5 -0.2256348634421331 0  0.5 -0.2165173209784076 0  0.5 -0.207422087829958 0  0.5 -0.1983491207029381 0  0.5 -0.1892983550950482 0  0.5 -0.1802697378305253 0  0.5 -0.1712632154965152 0  0.5 -0.1622787344187354 0  0.5 -0.1533162406595534 0  0.5 -0.1443756800160514 0  0.5 -0.1354569980180493 0  0.5 -0.1265601399261414 0  0.5 -0.1176850622761093 0  0.5 -0.1088317009011999 0  0.5 -0.09166666666668973 0  0.5 -0.08333333333337943 0  0.5 -0.07500000000006915 0  0.5 -0.06666666666675886 0  0.5 -0.05833333333344858 0  0.5 -0.05000000000013693 0  0.5 -0.04166666666678191 0  0.5 -0.03333333333342643 0  0.5 -0.02500000000006916 0  0.5 -0.01666666666671188 0  0.5 -0.00833333333335548 0  0.5 0.008333333333318314 0  0.5 0.01666666666663358 0  0.5 0.02499999999994162 0  0.5 0.03333333333325101 0  0.5 0.04166666666655769 0  0.5 0.04999999999986843 0  0.5 0.05833333333322258 0  0.5 0.06666666666657715 0  0.5 0.07499999999993352 0  0.5 0.08333333333328992 0  0.5 0.09166666666664541 0  0.5 0.1088317009011616 0  0.5 0.1176850622760307 0  0.5 0.1265601399260203 0  0.5 0.1354569980178909 0  0.5 0.1443756800158549 0  0.5 0.153316240659315 0  0.5 0.1622787344184454 0  0.5 0.1712632154961752 0  0.5 0.1802697378301332 0  0.5 0.1892983550946039 0  0.5 0.1983491207024433 0  0.5 0.2074220878294123 0  0.5 0.216517320977811 0  0.5 0.2256348634414833 0  0.5 0.2347747685517479 0  0.5 0.2439371050844009 0  0.5 0.2531219095529224 0  0.5 0.2623292564004089 0  0.5 0.2715591844619371 0  0.5 0.2808117567241139 0  0.5 0.290087031391723 0  0.5 0.2993850582216101 0  0.5 0.3087058944347426 0  0.5 0.3180495969703129 0  0.5 0.3274162224879299 0  0.5 0.3368058273696494 0  0.5 0.3462184677220051 0  0.5 0.3556541993780186 0  0.5 0.3651130778991989 0  0.5 0.3745951585775107 0  0.5 0.3841005081166359 0  0.5 0.3936291733052134 0  0.5 0.4031812128194852 0  0.5 0.412756689631945 0  0.5 0.4223556545379392 0  0.5 0.431978167868607 0  0.5 0.4416242912880781 0  0.5 0.4512940759249164 0  0.5 0.4609875815763912 0  0.5 0.4707048677449264 0  0.5 0.4804459958733726 0  0.5 0.4902110204680924 0  0.4900000000000277 0.5 0  0.4800000000000555 0.5 0  0.4700000000000832 0.5 0  0.4600000000001109 0.5 0  0.4500000000001387 0.5 0  0.4400000000001664 0.5 0  0.4300000000001942 0.5 0  0.4200000000002219 0.5 0  0.4100000000002497 0.5 0  0.4000000000002774 0.5 0  0.3900000000003052 0.5 0  0.3800000000003328 0.5 0  0.3700000000003606 0.5 0  0.3600000000003883 0.5 0  0.3500000000004161 0.5 0  0.3400000000004438 0.5 0  0.3300000000004716 0.5 0  0.3200000000004993 0.5 0  0.3100000000005271 0.5 0  0.3000000000005548 0.5 0  0.2900000000005825 0.5 0  0.2800000000006103 0.5 0  0.2700000000006381 0.5 0  0.2600000000006658 0.5 0  0.2500000000006935 0.5 0  0.2400000000007212 0.5 0  0.230000000000749 0.5 0  0.2200000000007767 0.5 0  0.2100000000008044 0.5 0  0.2000000000008322 0.5 0  0.19000000000086 0.5 0  0.1800000000008877 0.5 0  0.1700000000009154 0.5 0  0.1600000000009431 0.5 0  0.1500000000009709 0.5 0  0.1400000000009986 0.5 0  0.1300000000010264 0.5 0  0.1200000000010541 0.5 0  0.1100000000010818 0.5 0  0.1000000000011096 0.5 0  0.09000000000113734 0.5 0  0.08000000000116503 0.5 0  0.07000000000119283 0.5 0  0.06000000000122058 0.5 0  0.05000000000124827 0.5 0  0.04000000000127607 0.5 0  0.03000000000130376 0.5 0  0.02000000000133151 0.5 0  0.01000000000135925 0.5 0  1.376121439022882e-12 0.5 0  -0.009999999998640763 0.5 0  -0.01999999999866864 0.5 0  -0.02999999999869629 0.5 0  -0.03999999999872406 0.5 0  -0.04999999999875182 0.5 0  -0.05999999999877947 0.5 0  -0.06999999999880724 0.5 0  -0.079999999998835 0.5 0  -0.08999999999886266 0.5 0  -0.09999999999889042 0.5 0  -0.1099999999989182 0.5 0  -0.1199999999989459 0.5 0  -0.1299999999989737 0.5 0  -0.1399999999990014 0.5 0  -0.1499999999990291 0.5 0  -0.1599999999990568 0.5 0  -0.1699999999990847 0.5 0  -0.1799999999991124 0.5 0  -0.1899999999991401 0.5 0  -0.1999999999991678 0.5 0  -0.2099999999991955 0.5 0  -0.2199999999992234 0.5 0  -0.2299999999992511 0.5 0  -0.2399999999992788 0.5 0  -0.2499999999993066 0.5 0  -0.2599999999993342 0.5 0  -0.269999999999362 0.5 0  -0.2799999999993897 0.5 0  -0.2899999999994175 0.5 0  -0.2999999999994452 0.5 0  -0.3099999999994729 0.5 0  -0.3199999999995007 0.5 0  -0.3299999999995284 0.5 0  -0.3399999999995562 0.5 0  -0.3499999999995839 0.5 0  -0.3599999999996116 0.5 0  -0.3699999999996393 0.5 0  -0.379999999999667 0.5 0  -0.3899999999996949 0.5 0  -0.3999999999997226 0.5 0  -0.4099999999997503 0.5 0  -0.419999999999778 0.5 0  -0.4299999999998058 0.5 0  -0.4399999999998336 0.5 0  -0.4499999999998613 0.5 0  -0.4599999999998891 0.5 0  -0.4699999999999167 0.5 0  -0.4799999999999445 0.5 0  -0.4899999999999722 0.5 0  -0.5 0.4902110204681464 0  -0.5 0.4804459958734807 0  -0.5 0.4707048677450883 0  -0.5 0.4609875815766065 0  -0.5 0.4512940759251849 0  -0.5 0.4416242912883993 0  -0.5 0.4319781678689807 0  -0.5 0.4223556545383647 0  -0.5 0.4127566896324213 0  -0.5 0.4031812128200121 0  -0.5 0.3936291733057916 0  -0.5 0.3841005081172659 0  -0.5 0.3745951585781932 0  -0.5 0.3651130778999337 0  -0.5 0.3556541993788045 0  -0.5 0.3462184677228392 0  -0.5 0.3368058273705318 0  -0.5 0.3274162224888609 0  -0.5 0.3180495969712945 0  -0.5 0.3087058944357755 0  -0.5 0.299385058222682 0  -0.5 0.2900870313927414 0  -0.5 0.2808117567250807 0  -0.5 0.2715591844628491 0  -0.5 0.2623292564012653 0  -0.5 0.253121909553727 0  -0.5 0.2439371050851549 0  -0.5 0.2347747685524501 0  -0.5 0.2256348634421331 0  -0.5 0.2165173209784076 0  -0.5 0.207422087829958 0  -0.5 0.1983491207029381 0  -0.5 0.1892983550950482 0  -0.5 0.1802697378305253 0  -0.5 0.1712632154965152 0  -0.5 0.1622787344187354 0  -0.5 0.1533162406595534 0  -0.5 0.1443756800160514 0  -0.5 0.1354569980180493 0  -0.5 0.1265601399261414 0  -0.5 0.1176850622761093 0  -0.5 0.1088317009011999 0  -0.5 0.09167500000001694 0  -0.5 0.08335000000003931 0  -0.5 0.07502500000006167 0  -0.5 0.06670000000008947 0  -0.5 0.05837500000011001 0  -0.5 0.0500500000001328 0  -0.5 0.0417250000001127 0  -0.5 0.03340000000008944 0  -0.5 0.02507500000006573 0  -0.5 0.01675000000004653 0  -0.5 0.008425000000027341 
[...]
<PointData  Scalars="f_25"> 
<DataArray  type="Float64"  Name="f_25"  format="ascii">1.0000000000000000e+00  2.9369414703725859e-09  4.7533408356365638e-06  9.9399666044160206e-01  2.0835418628459170e-06  2.9473749343481266e-08  1.0000000000000000e+00  1.0000000000000000e+00  2.0793579988896160e-03  1.1726098003510387e-03  1.1821043070517866e-03  1.1815699934964205e-03  3.2728819764595289e-09  4.0775937200828878e-09  5.1312615093063994e-09  6.2850352738699635e-09  7.3866245582455850e-09  8.4532746298802282e-09  9.4815446187001273e-09  1.0550521115844401e-08  1.1582019879307391e-08  1.2647830437559483e-08  1.3757272897488714e-08  1.5006035026870330e-08  1.6329803064583723e-08  1.7773854081661067e-08  1.9382084854879753e-08  2.1195125163214480e-08  2.3316336473541786e-08  2.5610373908520156e-08  2.8186956089516032e-08  3.1099190658259929e-08  3.4209050270960660e-08  3.7638137377021363e-08  4.1506849942747806e-08  4.5563672802568652e-08  5.0046456828048428e-08  5.4905002583061384e-08  6.0150025252396592e-08  6.5936234623219027e-08  7.1964837762614891e-08  7.8617455450632067e-08  8.5624361205347798e-08  9.3125620281089387e-08  1.0109621865346410e-07  1.0964901560968417e-07  1.1869367942884589e-07  1.2819458888608477e-07  1.3824030130425271e-07  1.4886545829349350e-07  1.6000342327180684e-07  1.7157471750439047e-07  1.8376166800020367e-07  1.9652245170167573e-07  2.0962647188288572e-07  2.2339452184255458e-07  2.3753841468678775e-07  2.5238108221372176e-07  2.6747211130553848e-07  2.8304555174436000e-07  2.9920628259047673e-07  3.1567524629760856e-07  3.3257724510488496e-07  3.4988404071132937e-07  3.6775969406184448e-07  3.8600674439322175e-07  4.0428875784843253e-07  4.2300252762717715e-07  4.4212696668916798e-07  4.6167268531503429e-07  4.8148294427647635e-07  5.0147915196471976e-07  5.2218979415666858e-07  5.4330888007299388e-07  5.6431721298272986e-07  5.8589196810096088e-07  6.0798782040481178e-07  6.3014261549872158e-07  6.5314560806762001e-07  6.7630073916192265e-07  6.9998422017172196e-07  7.2441542766870832e-07  7.4950811733765856e-07  7.7533659604234179e-07  8.0185100759568381e-07  8.2882701562793143e-07  8.5689380414989918e-07  8.8621252423232630e-07  9.1642623012983087e-07  9.4816859401586533e-07  9.8184816022019581e-07  1.0168359067483534e-06  1.0544301000567446e-06  1.0937461118623129e-06  1.1355493764591909e-06  1.1807294719304391e-06  1.2301382230334736e-06  1.2834447047298106e-06  1.3421502550382375e-06  1.4086004113482987e-06  1.4821950645145256e-06  1.5671359072412946e-06  1.6649082669497296e-06  1.7838222526219926e-06  1.9240239838240034e-06  2.1007390963146181e-06  2.3272071569989132e-06  2.6250667650655054e-06  3.0156578691423898e-06  3.5278830016587000e-06  4.1895313899492678e-06  4.4043540287491501e-06  3.7850046608925056e-06  3.3016592668988971e-06  2.9241815676568110e-06  2.6540020719539034e-06  2.4551531714215415e-06  2.3088719173664461e-06  2.1965594906132397e-06  2.1088573363524090e-06  2.0405488433632446e-06  1.9850957880266123e-06  1.9412343007595171e-06  1.9052933839774536e-06  1.8770056215557228e-06  1.8533763680651482e-06  1.8339864699726755e-06  1.8186732229199111e-06  1.8061570280662659e-06  1.7959177298742770e-06  1.7883287152358754e-06  1.7826456245453893e-06  1.7795013785353343e-06  1.7791122022853741e-06  1.7825554475822214e-06  1.7918967024053686e-06  1.8107817070374223e-06  1.8466212834096396e-06  1.9094211186151234e-06  2.0271161636432422e-06  2.2426765663903721e-06  2.6310618716078189e-06  3.3622147656922231e-06  4.6725640931513547e-06  7.0818318812637809e-06  1.1365976135093263e-05  1.9504995415658010e-05  3.4333207011878984e-05  6.1567399615512775e-05  1.1052533465017738e-04  1.9785611655056997e-04  3.5995970304259097e-04  6.5222163046605949e-04  2.0740113113639647e-03  3.6523868003834610e-03  6.4401957293804433e-03  1.1181423991141009e-02  1.9582411344330610e-02  3.4374680879880312e-02  6.0132385290373722e-02  1.0519215507380565e-01  1.8347041247759607e-01  3.2569478190076973e-01  5.7185761387840284e-01  9.8300666379899571e-01  5.7264800175670461e-01  3.3010898060740013e-01  1.8485809981800083e-01  1.0536825599696945e-01  6.0265411055896584e-02  3.4371541281506053e-02  1.9629901111614310e-02  1.1153558764388775e-02  6.4562974468024949e-03  3.6769952383144465e-03  1.1557146806308125e-03  6.3729615116430523e-04  3.4981908983982809e-04  1.9488790218111267e-04  1.0801381525955452e-04  5.9684088371897907e-05  3.3377460125522836e-05  1.8935794236354809e-05  1.1349352422054619e-05  7.0920266739818786e-06  4.7774635495724920e-06  3.4936298278804143e-06  2.8151110893973934e-06  2.4414225274630730e-06  2.2404218389702199e-06  2.1345056060397871e-06  2.0756010559258034e-06  2.0452198649336505e-06  2.0301902173363860e-06  2.0237288947665667e-06  2.0218851222116635e-06  2.0235423554760014e-06  2.0252274589169843e-06  2.0293588240121623e-06  2.0327816831987525e-06  2.0369150671604556e-06  2.0421884594579597e-06  2.0455838124055154e-06  2.0496717242336358e-06  2.0540747536725346e-06  2.0582346177784514e-06  2.0619094700973317e-06  2.0651908366796482e-06  2.0686161895967048e-06  2.0717119763489355e-06  2.0744977566984571e-06  2.0766778121694857e-06  2.0789446368727157e-06  2.0805154103671138e-06  2.0828735704106154e-06  2.0823862934134456e-06  2.0833607729583329e-06  2.0694753235086105e-06  2.0398880319989039e-06  2.0025165106964202e-06  1.9615860791073170e-06  1.9189911058917042e-06  1.8764296570433880e-06  1.8347208491244466e-06  1.7941146315194655e-06  1.7538388141800216e-06  1.7147109747773557e-06  1.6766451401572856e-06  1.6397280166089620e-06  1.6031403249920288e-06  1.5678835508201137e-06  1.5333337984534419e-06  1.4992919069370216e-06  1.4660824794901700e-06  1.4334997283786557e-06  1.4016225027457415e-06  1.3697937419918081e-06  1.3387940087704606e-06  1.3078861968327587e-06  1.2775533320256430e-06  1.2469522378882188e-06  1.2168740239266424e-06  1.1871276090599595e-06  1.1570136321638327e-06  1.1271184426384938e-06  1.0965254243277983e-06  1.0663984219182508e-06  1.0359898766258005e-06  1.0054664420681429e-06  9.7449431941371523e-07  9.4333785471728118e-07  9.1202990523514203e-07  8.8055685085261982e-07  8.4888873305773910e-07  8.1703928364695154e-07  7.8489214342797015e-07  7.5213871126378416e-07  7.1976079234239258e-07  6.8732474829947237e-07  6.5501784810548665e-07  6.2297383372639466e-07  5.9073831423998421e-07  5.5922402650630759e-07  5.2749238132359478e-07  4.9628693143720827e-07  4.6582620931985457e-07  4.3612188728812067e-07  4.0720597969637435e-07  3.7859911753380608e-07  3.5146603160165186e-07  3.2495302896504431e-07  2.9935355391588541e-07  2.7516196156773247e-07  2.5174217673747824e-07  2.2955989271402210e-07  2.0863839231038240e-07  1.8877090180350480e-07  1.7032169063440123e-07  1.5285720174393683e-07  1.3670092781645159e-07  1.2165134657311604e-07  1.0777306180768408e-07  9.4953723341108630e-08  8.3089878382828934e-08  7.2455862324411726e-08  6.2622271016358463e-08  5.3795815998111873e-08  4.5806973602961677e-08  3.8694061199593982e-08  3.2290939348237623e-08  2.6691267810022851e-08  2.1692657547546030e-08  1.7355230797418525e-08  1.3662493961007067e-08  1.0461613773572080e-08  7.8108328419685032e-09  5.6160380577278226e-09  3.8849015180124275e-09  2.5931884132863009e-09  1.7046141060917516e-09  1.2177702600603614e-09  1.0916283915528622e-09  1.3049863735054986e-09  1.8361419177164109e-09  2.6536556260776902e-09  3.7414610624846791e-09  5.0692950495449972e-09  6.6740959096186926e-09  8.5468827656400169e-09  1.0733498906438160e-08  1.3182241620022781e-08  1.5983289736857705e-08  1.9019533560433104e-08  2.2308371653227639e-08  2.5507922661984334e-08  2.8147339120528099e-08  2.9477004725869885e-08  2.9380242127485364e-08  2.9322995284236870e-08  2.8991243204310517e-08  2.8734195158249670e-08  2.8403088461524150e-08  2.7983935592529352e-08  2.7554749265864154e-08  2.7005258931609302e-08  2.6464290516992758e-08  2.5863672493650958e-08  2.5212329108524604e-08  2.4493012058107188e-08  2.3730141379626830e-08  2.2940476281407706e-08  2.2125067155629459e-08  2.1303660949178914e-08  2.0485588537053858e-08  1.9731842286456041e-08  1.9169421167380040e-08  1.8959584128830110e-08  1.9394512210720928e-08  2.1124291059658712e-08  2.5283967289739649e-08  3.3868661058036055e-08  5.0728512717159292e-08  8.2746787789544214e-08  1.4353294720212153e-07  2.5719296383429197e-07  4.6761879330969543e-07  8.5648636150430822e-07  1.5634697507361550e-06  2.8754398854869412e-06  5.2987170958669175e-06  9.6274306000781510e-06  1.7808830007112949e-05  3.2581823704600545e-05  5.9490768379208406e-05  1.0813463214545232e-04  1.9581984644594531e-04  3.5979745069455137e-04  6.5481821893883174e-04  2.0961167257144645e-03  3.6840476419773417e-03  6.4858482079291754e-03  1.1256665048595885e-02  1.9737252625065527e-02  3.4720941365531534e-02  6.0782049374182093e-02  1.0622165164483055e-01  1.8493003604875427e-01  3.2702515527130877e-01  5.7160142370094547e-01  1.0000000000000000e+00  1.0000000000000000e+00  1.0000000000000000e+00  1.0000000000000000e+00  9.9999999999999989e-01  9.9999999999999989e-01  1.0000000000000000e+00  1.0000000000000000e+00  1.0000000000000000e+00  1.0000000000000000e+00  1.0000000000000000e+00  1.0000000000000000e+00  1.0000000000000000e+00  1.0000000000000000e+00  1.0000000000000000e+00  1.0000000000000000e+00  1.0000000000000000e+00  1.0000000000000000e+00  1.0000000000000000e+00  1.0000000000000000e+00  1.0000000000000000e+00  1.0000000000000000e+00  1.0000000000000000e+00  1.0000000000000000e+00  1.0000000000000000e+00  1.0000000000000000e+00  9.9999999999999989e-01  1.0000000000000000e+00  1.0000000000000000e+00  1.0000000000000000e+00  1.0000000000000000e+00  1.0000000000000000e+00  1.0000000000000000e+00  1.0000000000000000e+00  1.0000000000000000e+00  1.0000000000000000e+00  1.0000000000000000e+00  1.0000000000000000e+00  1.0000000000000000e+00  1.0000000000000000e+00  1.0000000000000000e+00  1.0000000000000000e+00  1.0000000000000000e+00  1.0000000000000000e+00  1.0000000000000000e+00  1.0000000000000000e+00  1.0000000000000000e+00  1.0000000000000000e+00  1.0000000000000000e+00  1.0000000000000000e+00  1.0000000000000000e+00  1.0000000000000000e+00  1.0000000000000000e+00  1.0000000000000000e+00  1.0000000000000000e+00  1.0000000000000000e+00  1.0000000000000000e+00  1.0000000000000000e+00  1.0000000000000000e+00  1.0000000000000000e+00  1.0000000000000000e+00  1.0000000000000000e+00  1.0000000000000000e+00  1.0000000000000000e+00  1.0000000000000000e+00  1.0000000000000000e+00  1.0000000000000000e+00  1.0000000000000000e+00  1.0000000000000000e+00  1.0000000000000000e+00  1.0000000000000000e+00  1.0000000000000000e+00  1.0000000000000000e+00  1.0000000000000000e+00  1.0000000000000000e+00  1.0000000000000000e+00  1.0000000000000000e+00  1.0000000000000000e+00  1.0000000000000000e+00  1.0000000000000000e+00  1.0000000000000000e+00  1.0000000000000000e+00  1.0000000000000000e+00  1.0000000000000000e+00  1.0000000000000000e+00  1.0000000000000000e+00  1.0000000000000000e+00  1.0000000000000000e+00  1.0000000000000000e+00  1.0000000000000000e+00  9.9999999999999989e-01  1.0000000000000000e+00  1.0000000000000000e+00  1.0000000000000000e+00  1.0000000000000000e+00  1.0000000000000000e+00  1.0000000000000000e+00  1.0000000000000000e+00  1.0000000000000000e+00  1.0000000000000000e+00  1.0000000000000000e+00  1.0000000000000000e+00  1.0000000000000000e+00  1.0000000000000000e+00  1.0000000000000000e+00  1.0000000000000000e+00  1.0000000000000000e+00  1.0000000000000000e+00  1.0000000000000000e+00  1.0000000000000000e+00  5.7157081540995258e-01  3.2704024579131885e-01  1.8489315726900116e-01  1.0623927490880805e-01  6.0789268539616005e-02  3.4726290686070825e-02  1.9744685446492608e-02  1.1258434821102510e-02  6.4895804342664527e-03  3.6859956469492135e-03  2.0973562908582141e-03  6.5513261243384062e-04  3.5991751977927476e-04  1.9537227479668283e-04  1.0819573577083059e-04  5.9558158584394966e-05  3.2620132073981007e-05  1.7824425620070052e-05  9.6375947263416749e-06  5.3019260494155984e-06  2.8766252319378944e-06  1.5643502898282959e-06  8.5716092127488097e-07  4.6809591997659647e-07  2.5726252301814901e-07  1.4327506298542718e-07  8.2175725130716522e-08  4.9806968745790699e-08  3.2556894493295495e-08  2.3498331272847589e-08  1.8803880768463288e-08  1.6471902595450145e-08  1.5347390916666636e-08  1.4794577226149360e-08  1.4495550555897819e-08  1.4295988334656961e-08  1.4089118139832772e-08  1.3820187289633902e-08  1.3442395102514765e-08  1.2958026718878754e-08  1.2393810373314430e-08  1.1710068273426473e-08  1.0931038622496121e-08  1.0068606043676502e-08  9.1239180574535184e-09  8.1530903630422578e-09  7.2025636105439802e-09  6.2290287953431642e-09  5.2689529379369362e-09  4.4109087352718205e-09  3.6557635516934849e-09  3.2650357210994960e-09  2.9974640577410516e-09  1.1789207918804583e-03  1.1823899976853086e-03  1.1825383207764168e-03  1.1783928491833314e-03  1.1725508367727696e-03  1.1865530304996513e-03  1.1823457728432373e-03  1.1649300980253717e-03  1.1761318825681466e-03  1.1877977721894994e-03  1.1644106001924791e-03  1.1772166531816254e-03  1.1866821373705137e-03  1.1848129309621677e-03  1.1827305400904271e-03  1.1728116311758901e-03  1.1708322479758470e-03  1.1599291130281696e-03  1.1782013277241467e-03  1.1818647401676198e-03  1.1710707942417099e-03  1.1707919755965075e-03  1.1852199022621428e-03  1.1857361872518665e-03  1.1735601120024439e-03  1.1765886823070313e-03  1.1783813698744662e-03  1.1720884145791899e-03  1.1845717759013297e-03  1.1782030193988593e-03  1.1702501723360025e-03  1.1758033845540102e-03  1.1763686540359746e-03  1.1653886200006613e-03  1.1765464708140322e-03  1.1925464813896717e-03  1.1657480313941437e-03  1.1823833126528198e-03  1.1817514701924672e-03  1.1674915550420161e-03  1.1922159295756566e-03  1.1867481852431781e-03  1.1722485050542420e-03  1.1877143806086920e-03  1.1775684708514626e-03  1.1859307763995048e-03  1.2153382002923186e-03  1.2374668043780748e-03  1.2536455251570548e-03  1.3064692878847690e-03  1.3623382722754141e-03  1.4179184949455034e-03  1.5274670401034752e-03  1.6155358151468061e-03  1.7068313804422914e-03  1.8212247191989339e-03  1.8982008726063685e-03  1.9450655744302841e-03  2.0395928078334844e-03  2.0669550074980383e-03  2.0761891316666346e-03  2.1013676075826329e-03  2.0639250330014426e-03  2.0798767313154050e-03  2.0792369837104082e-03  2.0736470059444212e-03  2.0513124182366554e-03  2.0139582845329581e-03  2.0419980524311286e-03  2.0465599490213748e-03  2.0340729371526047e-03  2.0183652634437458e-03  2.0208919737714375e-03  2.0148674744289450e-03  1.9817114201766042e-03  1.9982257496705845e-03  1.9872931584821846e-03  1.9674993235744547e-03  1.9864594078657736e-03  1.9741892315324645e-03  1.9599802638765530e-03  1.9834311036636774e-03  1.9933041609136704e-03  1.9732415447198050e-03  1.9663545993727810e-03  2.0158115071721495e-03  2.0093520186896417e-03  2.0113225854176287e-03  2.0114073373246727e-03  1.9850885395701120e-03  2.0073015402412809e-03  2.0240522584992313e-03  2.0245340953819755e-03  2.0254665925022431e-03  1.9947138897435193e-03  2.0236989996443057e-03  2.0399731620604450e-03  2.0495298368527651e-03  2.0391994355962750e-03  2.0444477347448431e-03  2.0567059141574787e-03  2.0684040466754307e-03  2.0697836441257683e-03  2.0832210090678087e-03  2.0934526389503475e-03  2.0827606118766951e-03  2.0880728075187331e-03  2.0832884328328212e-03  2.0643528359614153e-03  2.0935206572856818e-03  2.1074434619229834e-03  1.1794957217236891e-03  1.1825748742846877e-03  1.1827086864245136e-03  1.1785096099819995e-03  1.1727022123777166e-03  1.1871314855255741e-03  1.1825203649212580e-03  1.1653084246394353e-03  1.1759480595670499e-03  1.1871434936837845e-03  1.1659263190481762e-03  1.1762325420943806e-03  1.1856544867942869e-03  1.1836540494658827e-03  1.1815012121463007e-03  1.1721883267033883e-03  1.1690846549220631e-03  1.1560887351121159e-03  1.1758550874455109e-03  1.1836988249863624e-03  1.1735556954094969e-03  1.1746584976158633e-03  1.1869535076058321e-03  1.1876890527554662e-03  1.1745512114608905e-03  1.1772784860779254e-03  1.1795199232163590e-03  1.1732291488486736e-03  1.1848494827632447e-03  1.1787084883848054e-03  1.1700903505465004e-03  1.1742601090804850e-03  1.1733554705876332e-03  1.1623225600073642e-03  1.1733698033251532e-03  1.1899327972959661e-03  1.1625924471550721e-03  1.1791192027134144e-03  1.1773981489103082e-03  1.1627106999763861e-03  1.1881456914051758e-03  1.1816334928904455e-03  1.1669811507205698e-03  1.1812605447586414e-03  1.1666149692835352e-03  1.1665417798843540e-03  1.1815552206148070e-03  1.1827539640449417e-03  1.1676581477580896e-03  1.1770770185334093e-03  1.1773312989934153e-03  1.1601003782362525e-03  1.1784877592652550e-03  1.1755295283895125e-03  1.1680307465121989e-03  1.1771455830491700e-03  1.1731446537319389e-03  1.1575705164319015e-03  1.1793192885957064e-03  1.1748255437666910e-03  1.1672893953888317e-03  1.1769417202991404e-03  1.1556122477374155e-03  1.1662272061286826e-03  1.1689572901591812e-03  1.1691096302705538e-03  1.1602065499708224e-03  1.1434683509914678e-03  1.1642648320481625e-03  1.1728969572800719e-03  1.1714918505619238e-03  1.1660329334378453e-03  1.1738060794152284e-03  1.1759488091070140e-03  1.1623104754209497e-03  1.1774904919865719e-03  1.1760554148899038e-03  1.1680572319189570e-03  1.1812826133948925e-03  1.1736989542559290e-03  1.1627161419861727e-03  1.1727918418281958e-03  1.1738350854070484e-03  1.1594887974199397e-03  1.1489101882287093e-03  1.1734026297261890e-03  1.1669587005110782e-03  1.1674265168921925e-03  1.1686395522847832e-03  1.1549186556239228e-03  1.1685366695730292e-03  1.1782783758341874e-03  1.1762369019018952e-03  1.1723426903409123e-03  1.1506523532958839e-03  1.1647014289662015e-03  1.1720607395603038e-03  1.1762159014199786e-03  1.1676455829794383e-03  1.1673376126088663e-03  1.1697065766130246e-03  1.1718734347872582e-03  1.1694656105036346e-03  1.1745695795952857e-03  1.1790998602477904e-03  1.1731676546274236e-03  1.1752393221881989e-03  1.1732275127966563e-03  1.1620465353277202e-03  1.1795493248366552e-03  1.1892263687943868e-03  9.9094646984254875e-01  9.9718100395093401e-01  9.9241115027524829e-01  9.9401372191483806e-01  9.9483463777369940e-01  9.9422375112010286e-01  9.9475315779804174e-01  9.9519566239044854e-01  9.9386030669335801e-01  9.9440181247983683e-01  9.9291116788445311e-01  9.9653704160401779e-01  9.9344433553457201e-01  9.9540913180997836e-01  9.9478219574272420e-01  9.9531201133098579e-01  9.9515332443935189e-01  9.9506160400979038e-01  9.9531779262333908e-01  9.9534598231065607e-01  9.9545513080911063e-01  9.9553679843297749e-01  9.9565141988860351e-01  9.9598628087346341e-01  9.9596547825956749e-01  9.9394497307977869e-01  9.9780191681810526e-01  9.9448340757865672e-01  9.9613293627918376e-01  9.9472627683611814e-01  9.9386215497197883e-01  9.9394594755404697e-01  9.9482048680814983e-01  9.9613066924573346e-01  9.9444267729695934e-01  9.9801921402108973e-01  9.9403361336157992e-01  9.9398780474450676e-01  9.9750377349589503e-01  9.9338766874148321e-01  9.9438754979299171e-01  9.9410843135058669e-01  9.9549498477167753e-01  9.9507375384481478e-01  9.9457974950101946e-01  9.9461095665745125e-01  9.9363574402876520e-01  9.9446186247958579e-01  9.9504327443014118e-01  9.9433900955326726e-01  9.9499897572821061e-01  9.9429108772403829e-01  9.9508669763594815e-01  9.9305064468005522e-01  9.9584857034031993e-01  2.1852502489711662e-07  8.0949776975065337e-09  9.1882683614676406e-07  1.3722099673603367e-06  1.1223999687154480e-06  3.2348135667721314e-07  3.5486942632834468e-07  1.7782131695027189e-06  1.1269466091302626e-06  5.0611192250529386e-07  5.7058848560880958e-08  3.8643606267570245e-09  2.6810522443818704e-06  1.6365645563501193e-06  1.7707789496761917e-06  1.5125409430276263e-06  3.8812361090109426e-06  8.2366929525073398e-07  8.1353464397400687e-09  2.1284841728905460e-07  5.5856927842450431e