<?xml version="1.0"?>
<VTKFile type="UnstructuredGrid"  version="0.1"  >
<UnstructuredGrid>
<Piece  NumberOfPoints="15540" NumberOfCells="30546">
<Points>
<DataArray  type="Float64"  NumberOfComponents="3"  format="ascii">0 0 0  -0.5 -0.5 0  0.5 -0.5 0  0.5 0 0  0.5 0.5 0  -0.5 0.5 0  -0.5 0.0001 0  -0.5 -0.0001 0  0.5 0.1 0  0.5 -0.1 0  -0.5 -0.1 0  -0.5 0.1 0  -0.4900000000000277 -0.5 0  -0.4800000000000555 -0.5 0  -0.4700000000000832 -0.5 0  -0.4600000000001109 -0.5 0  -0.4500000000001387 -0.5 0  -0.4400000000001664 -0.5 0  -0.4300000000001942 -0.5 0  -0.4200000000002219 -0.5 0  -0.4100000000002497 -0.5 0  -0.4000000000002774 -0.5 0  -0.3900000000003052 -0.5 0  -0.3800000000003328 -0.5 0  -0.3700000000003606 -0.5 0  -0.3600000000003883 -0.5 0  -0.3500000000004161 -0.5 0  -0.3400000000004438 -0.5 0  -0.3300000000004716 -0.5 0  -0.3200000000004993 -0.5 0  -0.3100000000005271 -0.5 0  -0.3000000000005548 -0.5 0  -0.2900000000005825 -0.5 0  -0.2800000000006103 -0.5 0  -0.2700000000006381 -0.5 0  -0.2600000000006658 -0.5 0  -0.2500000000006935 -0.5 0  -0.2400000000007212 -0.5 0  -0.230000000000749 -0.5 0  -0.2200000000007767 -0.5 0  -0.2100000000008044 -0.5 0  -0.2000000000008322 -0.5 0  -0.19000000000086 -0.5 0  -0.1800000000008877 -0.5 0  -0.1700000000009154 -0.5 0  -0.1600000000009431 -0.5 0  -0.1500000000009709 -0.5 0  -0.1400000000009986 -0.5 0  -0.1300000000010264 -0.5 0  -0.1200000000010541 -0.5 0  -0.1100000000010818 -0.5 0  -0.1000000000011096 -0.5 0  -0.09000000000113734 -0.5 0  -0.08000000000116503 -0.5 0  -0.07000000000119283 -0.5 0  -0.06000000000122058 -0.5 0  -0.05000000000124827 -0.5 0  -0.04000000000127607 -0.5 0  -0.03000000000130376 -0.5 0  -0.02000000000133151 -0.5 0  -0.01000000000135925 -0.5 0  -1.376121439022882e-12 -0.5 0  0.009999999998640763 -0.5 0  0.01999999999866864 -0.5 0  0.02999999999869629 -0.5 0  0.03999999999872406 -0.5 0  0.04999999999875182 -0.5 0  0.05999999999877947 -0.5 0  0.06999999999880724 -0.5 0  0.079999999998835 -0.5 0  0.08999999999886266 -0.5 0  0.09999999999889042 -0.5 0  0.1099999999989182 -0.5 0  0.1199999999989459 -0.5 0  0.1299999999989737 -0.5 0  0.1399999999990014 -0.5 0  0.1499999999990291 -0.5 0  0.1599999999990568 -0.5 0  0.1699999999990847 -0.5 0  0.1799999999991124 -0.5 0  0.1899999999991401 -0.5 0  0.1999999999991678 -0.5 0  0.2099999999991955 -0.5 0  0.2199999999992234 -0.5 0  0.2299999999992511 -0.5 0  0.2399999999992788 -0.5 0  0.2499999999993066 -0.5 0  0.2599999999993342 -0.5 0  0.269999999999362 -0.5 0  0.2799999999993897 -0.5 0  0.2899999999994175 -0.5 0  0.2999999999994452 -0.5 0  0.3099999999994729 -0.5 0  0.3199999999995007 -0.5 0  0.3299999999995284 -0.5 0  0.3399999999995562 -0.5 0  0.3499999999995839 -0.5 0  0.3599999999996116 -0.5 0  0.3699999999996393 -0.5 0  0.379999999999667 -0.5 0  0.3899999999996949 -0.5 0  0.3999999999997226 -0.5 0  0.4099999999997503 -0.5 0  0.419999999999778 -0.5 0  0.4299999999998058 -0.5 0  0.4399999999998336 -0.5 0  0.4499999999998613 -0.5 0  0.4599999999998891 -0.5 0  0.4699999999999167 -0.5 0  0.4799999999999445 -0.5 0  0.4899999999999722 -0.5 0  0.5 -0.4902110204681464 0  0.5 -0.4804459958734807 0  0.5 -0.4707048677450883 0  0.5 -0.4609875815766065 0  0.5 -0.4512940759251849 0  0.5 -0.4416242912883993 0  0.5 -0.4319781678689807 0  0.5 -0.4223556545383647 0  0.5 -0.4127566896324213 0  0.5 -0.4031812128200121 0  0.5 -0.3936291733057916 0  0.5 -0.3841005081172659 0  0.5 -0.3745951585781932 0  0.5 -0.3651130778999337 0  0.5 -0.3556541993788045 0  0.5 -0.3462184677228392 0  0.5 -0.3368058273705318 0  0.5 -0.3274162224888609 0  0.5 -0.3180495969712945 0  0.5 -0.3087058944357755 0  0.5 -0.299385058222682 0  0.5 -0.2900870313927414 0  0.5 -0.2808117567250807 0  0.5 -0.2715591844628491 0  0.5 -0.2623292564012653 0  0.5 -0.253121909553727 0  0.5 -0.2439371050851549 0  0.5 -0.2347747685524501 0  0.5 -0.2256348634421331 0  0.5 -0.2165173209784076 0  0.5 -0.207422087829958 0  0.5 -0.1983491207029381 0  0.5 -0.1892983550950482 0  0.5 -0.1802697378305253 0  0.5 -0.1712632154965152 0  0.5 -0.1622787344187354 0  0.5 -0.1533162406595534 0  0.5 -0.1443756800160514 0  0.5 -0.1354569980180493 0  0.5 -0.1265601399261414 0  0.5 -0.1176850622761093 0  0.5 -0.1088317009011999 0  0.5 -0.09166666666668973 0  0.5 -0.08333333333337943 0  0.5 -0.07500000000006915 0  0.5 -0.06666666666675886 0  0.5 -0.05833333333344858 0  0.5 -0.05000000000013693 0  0.5 -0.04166666666678191 0  0.5 -0.03333333333342643 0  0.5 -0.02500000000006916 0  0.5 -0.01666666666671188 0  0.5 -0.00833333333335548 0  0.5 0.008333333333318314 0  0.5 0.01666666666663358 0  0.5 0.02499999999994162 0  0.5 0.03333333333325101 0  0.5 0.04166666666655769 0  0.5 0.04999999999986843 0  0.5 0.05833333333322258 0  0.5 0.06666666666657715 0  0.5 0.07499999999993352 0  0.5 0.08333333333328992 0  0.5 0.09166666666664541 0  0.5 0.1088317009011616 0  0.5 0.1176850622760307 0  0.5 0.1265601399260203 0  0.5 0.1354569980178909 0  0.5 0.1443756800158549 0  0.5 0.153316240659315 0  0.5 0.1622787344184454 0  0.5 0.1712632154961752 0  0.5 0.1802697378301332 0  0.5 0.1892983550946039 0  0.5 0.1983491207024433 0  0.5 0.2074220878294123 0  0.5 0.216517320977811 0  0.5 0.2256348634414833 0  0.5 0.2347747685517479 0  0.5 0.2439371050844009 0  0.5 0.2531219095529224 0  0.5 0.2623292564004089 0  0.5 0.2715591844619371 0  0.5 0.2808117567241139 0  0.5 0.290087031391723 0  0.5 0.2993850582216101 0  0.5 0.3087058944347426 0  0.5 0.3180495969703129 0  0.5 0.3274162224879299 0  0.5 0.3368058273696494 0  0.5 0.3462184677220051 0  0.5 0.3556541993780186 0  0.5 0.3651130778991989 0  0.5 0.3745951585775107 0  0.5 0.3841005081166359 0  0.5 0.3936291733052134 0  0.5 0.4031812128194852 0  0.5 0.412756689631945 0  0.5 0.4223556545379392 0  0.5 0.431978167868607 0  0.5 0.4416242912880781 0  0.5 0.4512940759249164 0  0.5 0.4609875815763912 0  0.5 0.4707048677449264 0  0.5 0.4804459958733726 0  0.5 0.4902110204680924 0  0.4900000000000277 0.5 0  0.4800000000000555 0.5 0  0.4700000000000832 0.5 0  0.4600000000001109 0.5 0  0.4500000000001387 0.5 0  0.4400000000001664 0.5 0  0.4300000000001942 0.5 0  0.4200000000002219 0.5 0  0.4100000000002497 0.5 0  0.4000000000002774 0.5 0  0.3900000000003052 0.5 0  0.3800000000003328 0.5 0  0.3700000000003606 0.5 0  0.3600000000003883 0.5 0  0.3500000000004161 0.5 0  0.3400000000004438 0.5 0  0.3300000000004716 0.5 0  0.3200000000004993 0.5 0  0.3100000000005271 0.5 0  0.3000000000005548 0.5 0  0.2900000000005825 0.5 0  0.2800000000006103 0.5 0  0.2700000000006381 0.5 0  0.2600000000006658 0.5 0  0.2500000000006935 0.5 0  0.2400000000007212 0.5 0  0.230000000000749 0.5 0  0.2200000000007767 0.5 0  0.2100000000008044 0.5 0  0.2000000000008322 0.5 0  0.19000000000086 0.5 0  0.1800000000008877 0.5 0  0.1700000000009154 0.5 0  0.1600000000009431 0.5 0  0.1500000000009709 0.5 0  0.1400000000009986 0.5 0  0.1300000000010264 0.5 0  0.1200000000010541 0.5 0  0.1100000000010818 0.5 0  0.1000000000011096 0.5 0  0.09000000000113734 0.5 0  0.08000000000116503 0.5 0  0.07000000000119283 0.5 0  0.06000000000122058 0.5 0  0.05000000000124827 0.5 0  0.04000000000127607 0.5 0  0.03000000000130376 0.5 0  0.02000000000133151 0.5 0  0.01000000000135925 0.5 0  1.376121439022882e-12 0.5 0  -0.009999999998640763 0.5 0  -0.01999999999866864 0.5 0  -0.02999999999869629 0.5 0  -0.03999999999872406 0.5 0  -0.04999999999875182 0.5 0  -0.05999999999877947 0.5 0  -0.06999999999880724 0.5 0  -0.079999999998835 0.5 0  -0.08999999999886266 0.5 0  -0.09999999999889042 0.5 0  -0.1099999999989182 0.5 0  -0.1199999999989459 0.5 0  -0.1299999999989737 0.5 0  -0.1399999999990014 0.5 0  -0.1499999999990291 0.5 0  -0.1599999999990568 0.5 0  -0.1699999999990847 0.5 0  -0.1799999999991124 0.5 0  -0.1899999999991401 0.5 0  -0.1999999999991678 0.5 0  -0.2099999999991955 0.5 0  -0.2199999999992234 0.5 0  -0.2299999999992511 0.5 0  -0.2399999999992788 0.5 0  -0.2499999999993066 0.5 0  -0.2599999999993342 0.5 0  -0.269999999999362 0.5 0  -0.2799999999993897 0.5 0  -0.2899999999994175 0.5 0  -0.2999999999994452 0.5 0  -0.3099999999994729 0.5 0  -0.3199999999995007 0.5 0  -0.3299999999995284 0.5 0  -0.3399999999995562 0.5 0  -0.3499999999995839 0.5 0  -0.3599999999996116 0.5 0  -0.3699999999996393 0.5 0  -0.379999999999667 0.5 0  -0.3899999999996949 0.5 0  -0.3999999999997226 0.5 0  -0.4099999999997503 0.5 0  -0.419999999999778 0.5 0  -0.4299999999998058 0.5 0  -0.4399999999998336 0.5 0  -0.4499999999998613 0.5 0  -0.4599999999998891 0.5 0  -0.4699999999999167 0.5 0  -0.4799999999999445 0.5 0  -0.4899999999999722 0.5 0  -0.5 0.4902110204681464 0  -0.5 0.4804459958734807 0  -0.5 0.4707048677450883 0  -0.5 0.4609875815766065 0  -0.5 0.4512940759251849 0  -0.5 0.4416242912883993 0  -0.5 0.4319781678689807 0  -0.5 0.4223556545383647 0  -0.5 0.4127566896324213 0  -0.5 0.4031812128200121 0  -0.5 0.3936291733057916 0  -0.5 0.3841005081172659 0  -0.5 0.3745951585781932 0  -0.5 0.3651130778999337 0  -0.5 0.3556541993788045 0  -0.5 0.3462184677228392 0  -0.5 0.3368058273705318 0  -0.5 0.3274162224888609 0  -0.5 0.3180495969712945 0  -0.5 0.3087058944357755 0  -0.5 0.299385058222682 0  -0.5 0.2900870313927414 0  -0.5 0.2808117567250807 0  -0.5 0.2715591844628491 0  -0.5 0.2623292564012653 0  -0.5 0.253121909553727 0  -0.5 0.2439371050851549 0  -0.5 0.2347747685524501 0  -0.5 0.2256348634421331 0  -0.5 0.2165173209784076 0  -0.5 0.207422087829958 0  -0.5 0.1983491207029381 0  -0.5 0.1892983550950482 0  -0.5 0.1802697378305253 0  -0.5 0.1712632154965152 0  -0.5 0.1622787344187354 0  -0.5 0.1533162406595534 0  -0.5 0.1443756800160514 0  -0.5 0.1354569980180493 0  -0.5 0.1265601399261414 0  -0.5 0.1176850622761093 0  -0.5 0.1088317009011999 0  -0.5 0.09167500000001694 0  -0.5 0.08335000000003931 0  -0.5 0.07502500000006167 0  -0.5 0.06670000000008947 0  -0.5 0.05837500000011001 0  -0.5 0.0500500000001328 0  -0.5 0.0417250000001127 0  -0.5 0.03340000000008944 0  -0.5 0.02507500000006573 0  -0.5 0.01675000000004653 0  -0.5 0.008425000000027341 
[...]
<PointData  Scalars="f_25"> 
<DataArray  type="Float64"  Name="f_25"  format="ascii">1.0000000000000000e+00  1.6728296725699901e-09  2.6621740914702933e-06  9.9499348430766066e-01  1.1662668227996523e-06  1.6478751198090879e-08  1.0000000000000000e+00  1.0000000000000000e+00  2.0824087758508714e-03  1.1727641261726617e-03  1.1821039688620755e-03  1.1815697028831728e-03  1.8583146923291172e-09  2.3122589183394177e-09  2.9103856251460153e-09  3.5659034123895175e-09  4.1925696001580006e-09  4.7994898031433842e-09  5.3844918588721962e-09  5.9923216330984890e-09  6.5786189291245817e-09  7.1843331653920506e-09  7.8148702428815434e-09  8.5245317397079631e-09  9.2767128723656382e-09  1.0096773350976841e-08  1.1009411005667985e-08  1.2037520525616390e-08  1.3239511866752391e-08  1.4538744451693522e-08  1.5997256302877624e-08  1.7644990979330335e-08  1.9403817735685673e-08  2.1342519601653402e-08  2.3528955608350561e-08  2.5821025727418423e-08  2.8352983706829943e-08  3.1096412183436090e-08  3.4057230706875840e-08  3.7322496848157087e-08  4.0723728315288772e-08  4.4476079946644415e-08  4.8427282663907182e-08  5.2656182154548093e-08  5.7148537309666768e-08  6.1967738797239684e-08  6.7062636766583901e-08  7.2413296983127335e-08  7.8069434249170605e-08  8.4050065375721818e-08  9.0317888022991921e-08  9.6827831048829406e-08  1.0368252783169078e-07  1.1085760824078904e-07  1.1822392089053162e-07  1.2596119093094638e-07  1.3390830815277228e-07  1.4224523741963442e-07  1.5072027621570362e-07  1.5946274337775790e-07  1.6853222496289851e-07  1.7777270317456708e-07  1.8725404974322285e-07  1.9695899326249100e-07  2.0697992520839794e-07  2.1720793234221014e-07  2.2745187807023020e-07  2.3793433156655517e-07  2.4864555614506765e-07  2.5958996889788685e-07  2.7067948638087612e-07  2.8187007851394872e-07  2.9345857046528047e-07  3.0527426775927620e-07  3.1702409506013102e-07  3.2908943458359369e-07  3.4144474310418486e-07  3.5382962594902233e-07  3.6668845950917409e-07  3.7962955169764178e-07  3.9286535555356592e-07  4.0651857895258299e-07  4.2054062576500963e-07  4.3497303209349404e-07  4.4978873971146430e-07  4.6486151691420789e-07  4.8054467966921698e-07  4.9692804372276626e-07  5.1381152998310620e-07  5.3155084511869421e-07  5.5037445137200662e-07  5.6993062599034379e-07  5.9094585542138908e-07  6.1292551598179505e-07  6.3629837907059437e-07  6.6156208637846306e-07  6.8919360802105174e-07  7.1900874558511435e-07  7.5184765957424358e-07  7.8902330853224018e-07  8.3020147340563387e-07  8.7773404113149054e-07  9.3245505026649643e-07  9.9901573203494094e-07  1.0775024808468527e-06  1.1764417493373275e-06  1.3032532767774221e-06  1.4700556704349767e-06  1.6888122135679131e-06  1.9757155860194470e-06  2.3463381525133589e-06  2.4666463774062902e-06  2.1196299540332927e-06  1.8487759144818045e-06  1.6372297971464831e-06  1.4857926251187590e-06  1.3743204035986902e-06  1.2923034349774807e-06  1.2293227695181372e-06  1.1801356356345223e-06  1.1418190702692162e-06  1.1107088163766008e-06  1.0860992838962982e-06  1.0659338528465796e-06  1.0500649829887030e-06  1.0368149129260027e-06  1.0259514916377501e-06  1.0173961520506776e-06  1.0104387584288054e-06  1.0048061064009357e-06  1.0007593838919091e-06  9.9794400576926968e-07  9.9687452238067275e-07  9.9792361384175213e-07  1.0021851891627797e-06  1.0117363354154883e-06  1.0302672965504080e-06  1.0651998924050681e-06  1.1264640603335275e-06  1.2422486876070019e-06  1.4550286367719811e-06  1.8401472711203175e-06  2.5674089182441769e-06  3.8736389686385912e-06  6.2788525071375716e-06  1.0559197682862369e-05  1.8697037377102092e-05  3.3528585483520974e-05  6.0775933812780574e-05  1.0976538125202987e-04  1.9716038526968493e-04  3.5939851536346228e-04  6.5191338392981096e-04  2.0749867222792703e-03  3.6548147682068533e-03  6.4452064257873821e-03  1.1190842980785504e-02  1.9599648360096453e-02  3.4405668381963100e-02  6.0187231225261872e-02  1.0528838066242349e-01  1.8363731660216853e-01  3.2598804905573070e-01  5.7236283897342621e-01  9.8576914606217425e-01  5.7424854044587670e-01  3.3100508109280907e-01  1.8532539588352659e-01  1.0562106005603959e-01  6.0403120582988357e-02  3.4446327116361149e-02  1.9670823146362364e-02  1.1175759181958414e-02  6.4683901137519038e-03  3.6832855790275474e-03  1.1569384034713377e-03  6.3752139453011414e-04  3.4950650878288808e-04  1.9429753523119214e-04  1.0727419460603673e-04  5.8866591651377984e-05  3.2521515022945185e-05  1.8061350384600700e-05  1.0468024896693763e-05  6.2080035259250554e-06  3.8931875143501114e-06  2.6102250119086802e-06  1.9325169526651604e-06  1.5596947520590696e-06  1.3585146112725843e-06  1.2528168743651130e-06  1.1934185469895545e-06  1.1622616454735488e-06  1.1461556788019247e-06  1.1383630115262721e-06  1.1350434654060258e-06  1.1347035305519085e-06  1.1349408710284066e-06  1.1368389267823809e-06  1.1385101138907978e-06  1.1406625227699110e-06  1.1435058764498984e-06  1.1453295936673895e-06  1.1475584825998346e-06  1.1499761713597102e-06  1.1522655628626404e-06  1.1542906106840191e-06  1.1561003305519110e-06  1.1579949892145294e-06  1.1597087351385684e-06  1.1612518150770061e-06  1.1624590057891786e-06  1.1637166251020472e-06  1.1645872975808224e-06  1.1658997051668471e-06  1.1656239221828986e-06  1.1661662844630782e-06  1.1584089189707802e-06  1.1418791470859515e-06  1.1209984063691813e-06  1.0981265874482032e-06  1.0743218486837130e-06  1.0505331797135479e-06  1.0272187568465791e-06  1.0045189199984856e-06  9.8200268341046536e-07  9.6012767242278097e-07  9.3884678113786350e-07  9.1820887187648857e-07  8.9775680085056370e-07  8.7805083191993257e-07  8.5874252157335968e-07  8.3972144001108209e-07  8.2116933017391618e-07  8.0297117073934807e-07  7.8517119708198764e-07  7.6740254356930987e-07  7.5010104664451638e-07  7.3285516620547421e-07  7.1593409509930107e-07  6.9886703085993107e-07  6.8209499885406138e-07  6.6551016161354750e-07  6.4872260191559620e-07  6.3205885041347148e-07  6.1500657561955226e-07  5.9821414624084621e-07  5.8126397309056722e-07  5.6424795225381429e-07  5.4697957740457750e-07  5.2960540752867541e-07  5.1214281790399256e-07  4.9458393824196721e-07  4.7691090593601598e-07  4.5913073845879787e-07  4.4117778669760305e-07  4.2287909305176603e-07  4.0478358996413541e-07  3.8664801707901768e-07  3.6857642216579534e-07  3.5064420368507503e-07  3.3259690524633761e-07  3.1494508266176958e-07  2.9716341865012792e-07  2.7966855473399572e-07  2.6258316983851775e-07  2.4591414659378795e-07  2.2968009011255431e-07  2.1361228090949295e-07  1.9836526738484358e-07  1.8345991087696245e-07  1.6906170677276311e-07  1.5544922774281624e-07  1.4226555234325571e-07  1.2977273626454261e-07  1.1798525453958929e-07  1.0678680690727361e-07  9.6383280974018506e-08  8.6531055817992115e-08  7.7413194512334703e-08  6.8916406813268477e-08  6.1077673723429073e-08  5.3834112440658852e-08  4.7127748644851923e-08  4.1114156058586434e-08  3.5550972834116340e-08  3.0555366456213860e-08  2.6031967194556295e-08  2.2002810020568499e-08  1.8373767851118738e-08  1.5198509371313798e-08  1.2362444078262098e-08  9.8999314929783242e-09  7.8018216608941734e-09  5.9815011709885326e-09  4.4722939742455824e-09  3.2207780661787035e-09  2.2310958749399188e-09  1.4900643921469674e-09  9.7687807549197689e-10  6.9079075836136588e-10  6.0897268432277708e-10  7.1915278709564413e-10  1.0094419702475289e-09  1.4618161958167862e-09  2.0670144999682281e-09  2.8078268516625983e-09  3.7046842188429748e-09  4.7524527577418320e-09  5.9767292284155012e-09  7.3484189252893021e-09  8.9179004798308888e-09  1.0619474486236725e-08  1.2462749754673032e-08  1.4256050942069973e-08  1.5735369352068510e-08  1.6480708060060059e-08  1.6426858202477644e-08  1.6395387419653768e-08  1.6210346717505799e-08  1.6067442346799498e-08  1.5883275879402046e-08  1.5649965271161978e-08  1.5411244199639336e-08  1.5105359525714480e-08  1.4804587858486856e-08  1.4470800138332183e-08  1.4109208333567194e-08  1.3710708299431748e-08  1.3289786627259874e-08  1.2857709056869077e-08  1.2418116770774286e-08  1.1988295258016740e-08  1.1585699404522511e-08  1.1264821134658485e-08  1.1141020810210685e-08  1.1376215357189179e-08  1.2276157131446976e-08  1.4470669857008110e-08  1.9096027676723090e-08  2.8152340854084889e-08  4.5474015395663571e-08  7.7929620646021224e-08  1.3915876681252367e-07  2.5325234224328114e-07  4.6409625097795839e-07  8.5337270321439593e-07  1.5607317810247208e-06  2.8730531678047111e-06  5.2966669934671290e-06  9.6256874185632141e-06  1.7807355449054326e-05  3.2580598485230019e-05  5.9489766854441519e-05  1.0813382454655743e-04  1.9581921031338654e-04  3.5979694859486841e-04  6.5481783120748124e-04  2.0961165031460728e-03  3.6840474759936371e-03  6.4858480863782784e-03  1.1256664960088597e-02  1.9737252562633204e-02  3.4720941321543811e-02  6.0782049343361323e-02  1.0622165162401892e-01  1.8493003603539448e-01  3.2702515526311765e-01  5.7160142369709144e-01  1.0000000000000000e+00  1.0000000000000000e+00  1.0000000000000000e+00  1.0000000000000000e+00  1.0000000000000000e+00  1.0000000000000000e+00  1.0000000000000000e+00  1.0000000000000000e+00  1.0000000000000000e+00  1.0000000000000000e+00  1.0000000000000000e+00  1.0000000000000000e+00  1.0000000000000000e+00  1.0000000000000000e+00  9.9999999999999989e-01  1.0000000000000000e+00  1.0000000000000000e+00  9.9999999999999989e-01  1.0000000000000000e+00  1.0000000000000000e+00  1.0000000000000000e+00  1.0000000000000000e+00  9.9999999999999989e-01  1.0000000000000000e+00  1.0000000000000000e+00  1.0000000000000000e+00  1.0000000000000000e+00  1.0000000000000000e+00  1.0000000000000000e+00  1.0000000000000000e+00  1.0000000000000000e+00  1.0000000000000000e+00  1.0000000000000000e+00  1.0000000000000000e+00  1.0000000000000000e+00  1.0000000000000000e+00  1.0000000000000000e+00  1.0000000000000000e+00  1.0000000000000000e+00  1.0000000000000000e+00  1.0000000000000000e+00  1.0000000000000000e+00  1.0000000000000000e+00  1.0000000000000000e+00  1.0000000000000000e+00  1.0000000000000000e+00  1.0000000000000000e+00  1.0000000000000000e+00  1.0000000000000000e+00  1.0000000000000000e+00  1.0000000000000000e+00  1.0000000000000000e+00  1.0000000000000000e+00  1.0000000000000000e+00  1.0000000000000000e+00  1.0000000000000000e+00  1.0000000000000000e+00  1.0000000000000000e+00  1.0000000000000000e+00  1.0000000000000000e+00  1.0000000000000000e+00  1.0000000000000000e+00  1.0000000000000000e+00  1.0000000000000000e+00  1.0000000000000000e+00  1.0000000000000000e+00  1.0000000000000000e+00  1.0000000000000000e+00  1.0000000000000000e+00  1.0000000000000000e+00  1.0000000000000000e+00  1.0000000000000000e+00  1.0000000000000000e+00  1.0000000000000000e+00  1.0000000000000000e+00  1.0000000000000000e+00  1.0000000000000000e+00  1.0000000000000000e+00  1.0000000000000000e+00  1.0000000000000000e+00  1.0000000000000000e+00  1.0000000000000000e+00  1.0000000000000000e+00  1.0000000000000000e+00  1.0000000000000000e+00  1.0000000000000000e+00  1.0000000000000000e+00  1.0000000000000000e+00  1.0000000000000000e+00  1.0000000000000000e+00  1.0000000000000000e+00  1.0000000000000000e+00  1.0000000000000000e+00  1.0000000000000000e+00  1.0000000000000000e+00  1.0000000000000000e+00  1.0000000000000000e+00  1.0000000000000000e+00  1.0000000000000000e+00  1.0000000000000000e+00  1.0000000000000000e+00  1.0000000000000000e+00  1.0000000000000000e+00  1.0000000000000000e+00  1.0000000000000000e+00  1.0000000000000000e+00  1.0000000000000000e+00  1.0000000000000000e+00  1.0000000000000000e+00  1.0000000000000000e+00  5.7157081540534882e-01  3.2704024578153873e-01  1.8489315725305375e-01  1.0623927488397776e-01  6.0789268502875457e-02  3.4726290633690052e-02  1.9744685372233790e-02  1.1258434716171217e-02  6.4895802907234748e-03  3.6859954519401468e-03  2.0973560307502568e-03  6.5513216485072422e-04  3.5991694489575886e-04  1.9537155081279445e-04  1.0819482780644867e-04  5.9557043638706078e-05  3.2618782955210497e-05  1.7822820554800576e-05  9.6357186038854558e-06  5.2997502209955355e-06  2.8741271931572203e-06  1.5615233931620487e-06  8.5400044800968490e-07  4.6458198841822369e-07  2.5340337132219347e-07  1.3907816054505916e-07  7.7648981815212467e-08  4.4985270886351273e-08  2.7443850909042591e-08  1.8119232697515925e-08  1.3193535354398955e-08  1.0661277522534312e-08  9.3762253658913329e-09  8.7125329187638196e-09  8.3535706442814005e-09  8.1400135125610136e-09  7.9678478593139653e-09  7.7860468987632834e-09  7.5561433776163745e-09  7.2733536141385468e-09  6.9495991403821599e-09  6.5608119016081123e-09  6.1198820563475218e-09  5.6329931062059161e-09  5.1007012190253596e-09  4.5545235691075483e-09  4.0211031402169124e-09  3.4758144814882575e-09  2.9397038048385306e-09  2.4630439249836187e-09  2.0463442327294704e-09  1.8381217521825677e-09  1.6998885784911999e-09  1.1789204741280723e-03  1.1823896090888729e-03  1.1825378272364549e-03  1.1783922213886087e-03  1.1725500501371037e-03  1.1865520626053022e-03  1.1823446028423070e-03  1.1649287124836265e-03  1.1761302630872762e-03  1.1877959123475070e-03  1.1644084948889942e-03  1.1772142961157929e-03  1.1866795330587583e-03  1.1848100855835694e-03  1.1827274625557879e-03  1.1728083345318816e-03  1.1708287480340057e-03  1.1599254287480939e-03  1.1781974767226973e-03  1.1818607524843733e-03  1.1710666937472538e-03  1.1707877915999886e-03  1.1852156690670900e-03  1.1857319437052762e-03  1.1735558822810268e-03  1.1765845094122336e-03  1.1783772914390710e-03  1.1720844495867297e-03  1.1845679627285018e-03  1.1781993795694484e-03  1.1702467140072977e-03  1.1758001216277253e-03  1.1763655667927425e-03  1.1653857021866789e-03  1.1765437016978239e-03  1.1925438174987069e-03  1.1657455536844073e-03  1.1823811819724934e-03  1.1817499861874210e-03  1.1674917076475745e-03  1.1922194403424201e-03  1.1867580703996492e-03  1.1722704121324859e-03  1.1877588682235121e-03  1.1776491122523810e-03  1.1860754286494685e-03  1.2155827940790304e-03  1.2378572703411613e-03  1.2542518626612717e-03  1.3073778178851964e-03  1.3636124106166765e-03  1.4196406772255172e-03  1.5297466320010216e-03  1.6182895569631930e-03  1.7100314412703353e-03  1.8248385551114558e-03  1.9020109292541981e-03  1.9488854677731789e-03  2.0434326909080118e-03  2.0706139118889331e-03  2.0795885340061417e-03  2.1045770618384552e-03  2.0668749996321104e-03  2.0827243017954829e-03  2.0820144437603142e-03  2.0763894542447274e-03  2.0540101271778765e-03  2.0165759511670436e-03  2.0446206975414916e-03  2.0491164267517760e-03  2.0365296369006152e-03  2.0207043084114838e-03  2.0231506603173464e-03  2.0170638440475657e-03  1.9838357818444986e-03  2.0003749719304758e-03  1.9894651522590684e-03  1.9697188382778691e-03  1.9888093270068372e-03  1.9766259501155224e-03  1.9624998204477028e-03  1.9860646560943243e-03  1.9959765682791247e-03  1.9758556898521987e-03  1.9689030740572184e-03  2.0183782841582797e-03  2.0118658502177580e-03  2.0138325063185900e-03  2.0139508542528959e-03  1.9876568105461970e-03  2.0099832465488802e-03  2.0268302448323387e-03  2.0273364432362262e-03  2.0282413370304362e-03  1.9973550960519127e-03  2.0262738459607779e-03  2.0424355589156225e-03  2.0518779840734214e-03  2.0414285382012267e-03  2.0466215535662937e-03  2.0588697479982021e-03  2.0705913998510543e-03  2.0720052084709211e-03  2.0855179738833761e-03  2.0958477534822593e-03  2.0852408448792112e-03  2.0906968471152004e-03  2.0860393134713418e-03  2.0671940513276913e-03  2.0965286798119128e-03  2.1105373295351188e-03  1.1794953552318305e-03  1.1825744334274101e-03  1.1827081359559340e-03  1.1785089203345859e-03  1.1727013593574817e-03  1.1871304478898474e-03  1.1825191238673516e-03  1.1653069689959354e-03  1.1759463738887520e-03  1.1871415745338010e-03  1.1659241638149584e-03  1.1762301468526575e-03  1.1856518579295993e-03  1.1836511950354912e-03  1.1814981414206751e-03  1.1721850516820541e-03  1.1690811905972890e-03  1.1560850993592138e-03  1.1758512954703495e-03  1.1836949043222804e-03  1.1735516667300116e-03  1.1746543870429021e-03  1.1869493491287633e-03  1.1876848798207291e-03  1.1745470447450837e-03  1.1772743673994907e-03  1.1795158898293111e-03  1.1732252196889918e-03  1.1848456983636435e-03  1.1787048711426468e-03  1.1700869109856047e-03  1.1742568645665642e-03  1.1733523938206800e-03  1.1623196254475063e-03  1.1733669342566776e-03  1.1899298308489582e-03  1.1625892545265341e-03  1.1791154736482243e-03  1.1773934608370793e-03  1.1627045666340997e-03  1.1881373514099453e-03  1.1816219936148129e-03  1.1669653564781151e-03  1.1812391731910645e-03  1.1665862740512548e-03  1.1665044299601804e-03  1.1815078499149566e-03  1.1826955959860954e-03  1.1675896428530667e-03  1.1770014827053596e-03  1.1772522052297717e-03  1.1600269674089897e-03  1.1784369878553101e-03  1.1755068917358507e-03  1.1680547382950249e-03  1.1772385637408948e-03  1.1732998111462041e-03  1.1577914784557611e-03  1.1796298609731699e-03  1.1751938996551244e-03  1.1677074011002728e-03  1.1774086772411349e-03  1.1560894382828264e-03  1.1667340499978735e-03  1.1694778409237540e-03  1.1696345064542122e-03  1.1607216188222113e-03  1.1439632271816346e-03  1.1647741240817459e-03  1.1734073078334545e-03  1.1719954746461083e-03  1.1665248088106449e-03  1.1742975558808422e-03  1.1764351047034909e-03  1.1627762039014998e-03  1.1779590330092654e-03  1.1765119261073673e-03  1.1684951779109124e-03  1.1817190813279378e-03  1.1741191191078689e-03  1.1631195761434838e-03  1.1731989868123585e-03  1.1742420710181532e-03  1.1598876624131875e-03  1.1493049464014198e-03  1.1738230333792185e-03  1.1673758760039575e-03  1.1678426236856479e-03  1.1690515221981065e-03  1.1553114756239673e-03  1.1689352185966669e-03  1.1786829999442647e-03  1.1766432876846287e-03  1.1727560588924170e-03  1.1510625970564158e-03  1.1651436961726874e-03  1.1725310188040526e-03  1.1767105014310654e-03  1.1681505020644588e-03  1.1678558826844804e-03  1.1702356265388630e-03  1.1724076407388939e-03  1.1699926098614364e-03  1.1750883345445430e-03  1.1795999090220390e-03  1.1736276318504420e-03  1.1756549861814862e-03  1.1735847630813126e-03  1.1623290996943178e-03  1.1797843695539945e-03  1.1894190185348234e-03  9.9241603110206211e-01  9.9777600097302355e-01  9.9365677097940330e-01  9.9510623924217734e-01  9.9581106051634294e-01  9.9523787457154844e-01  9.9568883096968219e-01  9.9606732052941649e-01  9.9495887728212096e-01  9.9544217555669201e-01  9.9409945472458761e-01  9.9719799732473768e-01  9.9455119896003563e-01  9.9625322807346117e-01  9.9570133321729681e-01  9.9619181027069970e-01  9.9600935066721152e-01  9.9593214053171975e-01  9.9619559153364634e-01  9.9617146289787806e-01  9.9626540281520992e-01  9.9636810431668243e-01  9.9641575287682538e-01  9.9670683565497431e-01  9.9671469240804034e-01  9.9495467858330933e-01  9.9827280667672225e-01  9.9541855943710689e-01  9.9683453885183082e-01  9.9567614791552983e-01  9.9497902545420935e-01  9.9504998573236891e-01  9.9575391550317494e-01  9.9683167889248014e-01  9.9538994485570687e-01  9.9844793885379846e-01  9.9503752060895678e-01  9.9504366094397123e-01  9.9803061360043976e-01  9.9451061406444818e-01  9.9541281702599560e-01  9.9516228285227926e-01  9.9632521585388178e-01  9.9595635342466604e-01  9.9553863706708923e-01  9.9562767864794310e-01  9.9476778376404329e-01  9.9546057959607592e-01  9.9594202308073621e-01  9.9533763705582134e-01  9.9594636269985815e-01  9.9530285966829102e-01  9.9599090525123668e-01  9.9423171741665484e-01  9.9659239024413027e-01  1.2458879969740962e-07  5.4609270836976614e-09  5.1807056054017927e-07  7.6986043429241385e-07  8.3544880611434076e-07  3.1161063876646789e-07  3.5114820938286411e-07  1.2463289137588856e-06  6.3184243737885616e-07  2.8538836141281069e-07  3.2429421552927084e-08  2.1404492877640695e-09  2.0225009966060567e-06  9.1626011842952933e-07  1.6808917573272549e-06  1.5098364795712204e-06  3.4002695491358965e-06  4.6294145015321657e-07  4.6458619488482905e-09  1.2042248775795807e-07  5.0106978166059782e