<?xml version="1.0"?>
<VTKFile type="UnstructuredGrid"  version="0.1"  >
<UnstructuredGrid>
<Piece  NumberOfPoints="15540" NumberOfCells="30546">
<Points>
<DataArray  type="Float64"  NumberOfComponents="3"  format="ascii">0 0 0  -0.5 -0.5 0  0.5 -0.5 0  0.5 0 0  0.5 0.5 0  -0.5 0.5 0  -0.5 0.0001 0  -0.5 -0.0001 0  0.5 0.1 0  0.5 -0.1 0  -0.5 -0.1 0  -0.5 0.1 0  -0.4900000000000277 -0.5 0  -0.4800000000000555 -0.5 0  -0.4700000000000832 -0.5 0  -0.4600000000001109 -0.5 0  -0.4500000000001387 -0.5 0  -0.4400000000001664 -0.5 0  -0.4300000000001942 -0.5 0  -0.4200000000002219 -0.5 0  -0.4100000000002497 -0.5 0  -0.4000000000002774 -0.5 0  -0.3900000000003052 -0.5 0  -0.3800000000003328 -0.5 0  -0.3700000000003606 -0.5 0  -0.3600000000003883 -0.5 0  -0.3500000000004161 -0.5 0  -0.3400000000004438 -0.5 0  -0.3300000000004716 -0.5 0  -0.3200000000004993 -0.5 0  -0.3100000000005271 -0.5 0  -0.3000000000005548 -0.5 0  -0.2900000000005825 -0.5 0  -0.2800000000006103 -0.5 0  -0.2700000000006381 -0.5 0  -0.2600000000006658 -0.5 0  -0.2500000000006935 -0.5 0  -0.2400000000007212 -0.5 0  -0.230000000000749 -0.5 0  -0.2200000000007767 -0.5 0  -0.2100000000008044 -0.5 0  -0.2000000000008322 -0.5 0  -0.19000000000086 -0.5 0  -0.1800000000008877 -0.5 0  -0.1700000000009154 -0.5 0  -0.1600000000009431 -0.5 0  -0.1500000000009709 -0.5 0  -0.1400000000009986 -0.5 0  -0.1300000000010264 -0.5 0  -0.1200000000010541 -0.5 0  -0.1100000000010818 -0.5 0  -0.1000000000011096 -0.5 0  -0.09000000000113734 -0.5 0  -0.08000000000116503 -0.5 0  -0.07000000000119283 -0.5 0  -0.06000000000122058 -0.5 0  -0.05000000000124827 -0.5 0  -0.04000000000127607 -0.5 0  -0.03000000000130376 -0.5 0  -0.02000000000133151 -0.5 0  -0.01000000000135925 -0.5 0  -1.376121439022882e-12 -0.5 0  0.009999999998640763 -0.5 0  0.01999999999866864 -0.5 0  0.02999999999869629 -0.5 0  0.03999999999872406 -0.5 0  0.04999999999875182 -0.5 0  0.05999999999877947 -0.5 0  0.06999999999880724 -0.5 0  0.079999999998835 -0.5 0  0.08999999999886266 -0.5 0  0.09999999999889042 -0.5 0  0.1099999999989182 -0.5 0  0.1199999999989459 -0.5 0  0.1299999999989737 -0.5 0  0.1399999999990014 -0.5 0  0.1499999999990291 -0.5 0  0.1599999999990568 -0.5 0  0.1699999999990847 -0.5 0  0.1799999999991124 -0.5 0  0.1899999999991401 -0.5 0  0.1999999999991678 -0.5 0  0.2099999999991955 -0.5 0  0.2199999999992234 -0.5 0  0.2299999999992511 -0.5 0  0.2399999999992788 -0.5 0  0.2499999999993066 -0.5 0  0.2599999999993342 -0.5 0  0.269999999999362 -0.5 0  0.2799999999993897 -0.5 0  0.2899999999994175 -0.5 0  0.2999999999994452 -0.5 0  0.3099999999994729 -0.5 0  0.3199999999995007 -0.5 0  0.3299999999995284 -0.5 0  0.3399999999995562 -0.5 0  0.3499999999995839 -0.5 0  0.3599999999996116 -0.5 0  0.3699999999996393 -0.5 0  0.379999999999667 -0.5 0  0.3899999999996949 -0.5 0  0.3999999999997226 -0.5 0  0.4099999999997503 -0.5 0  0.419999999999778 -0.5 0  0.4299999999998058 -0.5 0  0.4399999999998336 -0.5 0  0.4499999999998613 -0.5 0  0.4599999999998891 -0.5 0  0.4699999999999167 -0.5 0  0.4799999999999445 -0.5 0  0.4899999999999722 -0.5 0  0.5 -0.4902110204681464 0  0.5 -0.4804459958734807 0  0.5 -0.4707048677450883 0  0.5 -0.4609875815766065 0  0.5 -0.4512940759251849 0  0.5 -0.4416242912883993 0  0.5 -0.4319781678689807 0  0.5 -0.4223556545383647 0  0.5 -0.4127566896324213 0  0.5 -0.4031812128200121 0  0.5 -0.3936291733057916 0  0.5 -0.3841005081172659 0  0.5 -0.3745951585781932 0  0.5 -0.3651130778999337 0  0.5 -0.3556541993788045 0  0.5 -0.3462184677228392 0  0.5 -0.3368058273705318 0  0.5 -0.3274162224888609 0  0.5 -0.3180495969712945 0  0.5 -0.3087058944357755 0  0.5 -0.299385058222682 0  0.5 -0.2900870313927414 0  0.5 -0.2808117567250807 0  0.5 -0.2715591844628491 0  0.5 -0.2623292564012653 0  0.5 -0.253121909553727 0  0.5 -0.2439371050851549 0  0.5 -0.2347747685524501 0  0.5 -0.2256348634421331 0  0.5 -0.2165173209784076 0  0.5 -0.207422087829958 0  0.5 -0.1983491207029381 0  0.5 -0.1892983550950482 0  0.5 -0.1802697378305253 0  0.5 -0.1712632154965152 0  0.5 -0.1622787344187354 0  0.5 -0.1533162406595534 0  0.5 -0.1443756800160514 0  0.5 -0.1354569980180493 0  0.5 -0.1265601399261414 0  0.5 -0.1176850622761093 0  0.5 -0.1088317009011999 0  0.5 -0.09166666666668973 0  0.5 -0.08333333333337943 0  0.5 -0.07500000000006915 0  0.5 -0.06666666666675886 0  0.5 -0.05833333333344858 0  0.5 -0.05000000000013693 0  0.5 -0.04166666666678191 0  0.5 -0.03333333333342643 0  0.5 -0.02500000000006916 0  0.5 -0.01666666666671188 0  0.5 -0.00833333333335548 0  0.5 0.008333333333318314 0  0.5 0.01666666666663358 0  0.5 0.02499999999994162 0  0.5 0.03333333333325101 0  0.5 0.04166666666655769 0  0.5 0.04999999999986843 0  0.5 0.05833333333322258 0  0.5 0.06666666666657715 0  0.5 0.07499999999993352 0  0.5 0.08333333333328992 0  0.5 0.09166666666664541 0  0.5 0.1088317009011616 0  0.5 0.1176850622760307 0  0.5 0.1265601399260203 0  0.5 0.1354569980178909 0  0.5 0.1443756800158549 0  0.5 0.153316240659315 0  0.5 0.1622787344184454 0  0.5 0.1712632154961752 0  0.5 0.1802697378301332 0  0.5 0.1892983550946039 0  0.5 0.1983491207024433 0  0.5 0.2074220878294123 0  0.5 0.216517320977811 0  0.5 0.2256348634414833 0  0.5 0.2347747685517479 0  0.5 0.2439371050844009 0  0.5 0.2531219095529224 0  0.5 0.2623292564004089 0  0.5 0.2715591844619371 0  0.5 0.2808117567241139 0  0.5 0.290087031391723 0  0.5 0.2993850582216101 0  0.5 0.3087058944347426 0  0.5 0.3180495969703129 0  0.5 0.3274162224879299 0  0.5 0.3368058273696494 0  0.5 0.3462184677220051 0  0.5 0.3556541993780186 0  0.5 0.3651130778991989 0  0.5 0.3745951585775107 0  0.5 0.3841005081166359 0  0.5 0.3936291733052134 0  0.5 0.4031812128194852 0  0.5 0.412756689631945 0  0.5 0.4223556545379392 0  0.5 0.431978167868607 0  0.5 0.4416242912880781 0  0.5 0.4512940759249164 0  0.5 0.4609875815763912 0  0.5 0.4707048677449264 0  0.5 0.4804459958733726 0  0.5 0.4902110204680924 0  0.4900000000000277 0.5 0  0.4800000000000555 0.5 0  0.4700000000000832 0.5 0  0.4600000000001109 0.5 0  0.4500000000001387 0.5 0  0.4400000000001664 0.5 0  0.4300000000001942 0.5 0  0.4200000000002219 0.5 0  0.4100000000002497 0.5 0  0.4000000000002774 0.5 0  0.3900000000003052 0.5 0  0.3800000000003328 0.5 0  0.3700000000003606 0.5 0  0.3600000000003883 0.5 0  0.3500000000004161 0.5 0  0.3400000000004438 0.5 0  0.3300000000004716 0.5 0  0.3200000000004993 0.5 0  0.3100000000005271 0.5 0  0.3000000000005548 0.5 0  0.2900000000005825 0.5 0  0.2800000000006103 0.5 0  0.2700000000006381 0.5 0  0.2600000000006658 0.5 0  0.2500000000006935 0.5 0  0.2400000000007212 0.5 0  0.230000000000749 0.5 0  0.2200000000007767 0.5 0  0.2100000000008044 0.5 0  0.2000000000008322 0.5 0  0.19000000000086 0.5 0  0.1800000000008877 0.5 0  0.1700000000009154 0.5 0  0.1600000000009431 0.5 0  0.1500000000009709 0.5 0  0.1400000000009986 0.5 0  0.1300000000010264 0.5 0  0.1200000000010541 0.5 0  0.1100000000010818 0.5 0  0.1000000000011096 0.5 0  0.09000000000113734 0.5 0  0.08000000000116503 0.5 0  0.07000000000119283 0.5 0  0.06000000000122058 0.5 0  0.05000000000124827 0.5 0  0.04000000000127607 0.5 0  0.03000000000130376 0.5 0  0.02000000000133151 0.5 0  0.01000000000135925 0.5 0  1.376121439022882e-12 0.5 0  -0.009999999998640763 0.5 0  -0.01999999999866864 0.5 0  -0.02999999999869629 0.5 0  -0.03999999999872406 0.5 0  -0.04999999999875182 0.5 0  -0.05999999999877947 0.5 0  -0.06999999999880724 0.5 0  -0.079999999998835 0.5 0  -0.08999999999886266 0.5 0  -0.09999999999889042 0.5 0  -0.1099999999989182 0.5 0  -0.1199999999989459 0.5 0  -0.1299999999989737 0.5 0  -0.1399999999990014 0.5 0  -0.1499999999990291 0.5 0  -0.1599999999990568 0.5 0  -0.1699999999990847 0.5 0  -0.1799999999991124 0.5 0  -0.1899999999991401 0.5 0  -0.1999999999991678 0.5 0  -0.2099999999991955 0.5 0  -0.2199999999992234 0.5 0  -0.2299999999992511 0.5 0  -0.2399999999992788 0.5 0  -0.2499999999993066 0.5 0  -0.2599999999993342 0.5 0  -0.269999999999362 0.5 0  -0.2799999999993897 0.5 0  -0.2899999999994175 0.5 0  -0.2999999999994452 0.5 0  -0.3099999999994729 0.5 0  -0.3199999999995007 0.5 0  -0.3299999999995284 0.5 0  -0.3399999999995562 0.5 0  -0.3499999999995839 0.5 0  -0.3599999999996116 0.5 0  -0.3699999999996393 0.5 0  -0.379999999999667 0.5 0  -0.3899999999996949 0.5 0  -0.3999999999997226 0.5 0  -0.4099999999997503 0.5 0  -0.419999999999778 0.5 0  -0.4299999999998058 0.5 0  -0.4399999999998336 0.5 0  -0.4499999999998613 0.5 0  -0.4599999999998891 0.5 0  -0.4699999999999167 0.5 0  -0.4799999999999445 0.5 0  -0.4899999999999722 0.5 0  -0.5 0.4902110204681464 0  -0.5 0.4804459958734807 0  -0.5 0.4707048677450883 0  -0.5 0.4609875815766065 0  -0.5 0.4512940759251849 0  -0.5 0.4416242912883993 0  -0.5 0.4319781678689807 0  -0.5 0.4223556545383647 0  -0.5 0.4127566896324213 0  -0.5 0.4031812128200121 0  -0.5 0.3936291733057916 0  -0.5 0.3841005081172659 0  -0.5 0.3745951585781932 0  -0.5 0.3651130778999337 0  -0.5 0.3556541993788045 0  -0.5 0.3462184677228392 0  -0.5 0.3368058273705318 0  -0.5 0.3274162224888609 0  -0.5 0.3180495969712945 0  -0.5 0.3087058944357755 0  -0.5 0.299385058222682 0  -0.5 0.2900870313927414 0  -0.5 0.2808117567250807 0  -0.5 0.2715591844628491 0  -0.5 0.2623292564012653 0  -0.5 0.253121909553727 0  -0.5 0.2439371050851549 0  -0.5 0.2347747685524501 0  -0.5 0.2256348634421331 0  -0.5 0.2165173209784076 0  -0.5 0.207422087829958 0  -0.5 0.1983491207029381 0  -0.5 0.1892983550950482 0  -0.5 0.1802697378305253 0  -0.5 0.1712632154965152 0  -0.5 0.1622787344187354 0  -0.5 0.1533162406595534 0  -0.5 0.1443756800160514 0  -0.5 0.1354569980180493 0  -0.5 0.1265601399261414 0  -0.5 0.1176850622761093 0  -0.5 0.1088317009011999 0  -0.5 0.09167500000001694 0  -0.5 0.08335000000003931 0  -0.5 0.07502500000006167 0  -0.5 0.06670000000008947 0  -0.5 0.05837500000011001 0  -0.5 0.0500500000001328 0  -0.5 0.0417250000001127 0  -0.5 0.03340000000008944 0  -0.5 0.02507500000006573 0  -0.5 0.01675000000004653 0  -0.5 0.008425000000027341 
[...]
<PointData  Scalars="f_25"> 
<DataArray  type="Float64"  Name="f_25"  format="ascii">1.0000000000000000e+00  1.3199893824080171e-04  1.3065593369755690e-01  2.2039032065195988e-02  4.6736759104775774e-02  8.7669977844367843e-04  1.0000000000000000e+00  1.0000000000000000e+00  2.5100973911897702e-02  2.3266989706980649e-02  1.2058271437116121e-03  1.2021799123324735e-03  1.3353249175757808e-04  1.5470883176025603e-04  1.9010678028718710e-04  2.3101967473444074e-04  2.7171473895014765e-04  3.1173276470807025e-04  3.5051264914684227e-04  3.9057651076420297e-04  4.2923122996362022e-04  4.6906783110529709e-04  5.1054398942808278e-04  5.5680138072628025e-04  6.0542483262320099e-04  6.5763535075788568e-04  7.1485506627790507e-04  7.7836744892333164e-04  8.5166655897652788e-04  9.3014610948258323e-04  1.0174118350515040e-03  1.1152711693718567e-03  1.2190423999731785e-03  1.3327245585871661e-03  1.4602630257516097e-03  1.5933515177860254e-03  1.7397471799781310e-03  1.8977409985010949e-03  2.0676334659469752e-03  2.2544016770538731e-03  2.4481704662653952e-03  2.6613915393471845e-03  2.8851275683525325e-03  3.1238403360721945e-03  3.3766657125516757e-03  3.6470325705036280e-03  3.9318720978217363e-03  4.2300707399348858e-03  4.5442619115859274e-03  4.8752387463629494e-03  5.2209085547661521e-03  5.5785225503531509e-03  5.9537326499103510e-03  6.3446313185944346e-03  6.7442440050335846e-03  7.1618186287213418e-03  7.5893333351697559e-03  8.0351231040682210e-03  8.4870372925303257e-03  8.9494198769178076e-03  9.4261366790774122e-03  9.9092818541829716e-03  1.0402770290799397e-02  1.0903320502871775e-02  1.1415673736744557e-02  1.1937420138065997e-02  1.2453918116133300e-02  1.2976765352564298e-02  1.3509073218566639e-02  1.4047823535736661e-02  1.4587737320143230e-02  1.5125938514865024e-02  1.5678357164951889e-02  1.6238844192376676e-02  1.6785318632852198e-02  1.7342744596732466e-02  1.7909217549741854e-02  1.8463848906253660e-02  1.9038774373086927e-02  1.9605114020436857e-02  2.0179157870029930e-02  2.0766826894486150e-02  2.1363529603179859e-02  2.1969974857149927e-02  2.2588496707924399e-02  2.3207445143095820e-02  2.3849848447142889e-02  2.4518615776221001e-02  2.5199301637482401e-02  2.5916423998681683e-02  2.6678769943512599e-02  2.7469917318575541e-02  2.8325789359654067e-02  2.9224570368741244e-02  3.0189675923528937e-02  3.1245810485117178e-02  3.2416149759728619e-02  3.3698974317328684e-02  3.5138635559829948e-02  3.6801005768308068e-02  3.8679738096985224e-02  4.0894875525742745e-02  4.3506926715087477e-02  4.6735166733984680e-02  5.0614472767216478e-02  5.5582730257941734e-02  6.2051208126245948e-02  7.0556578928512498e-02  8.1758178319754210e-02  9.6318117218044244e-02  1.1492651486792695e-01  1.1989128120933326e-01  1.0076350695526010e-01  8.5438546685658215e-02  7.3489906137227390e-02  6.4892375987399997e-02  5.8557565249793060e-02  5.3859784587577016e-02  5.0251172645543275e-02  4.7405051554130793e-02  4.5133870379081592e-02  4.3236446501878051e-02  4.1668852576665562e-02  4.0321103705814695e-02  3.9184722220437902e-02  3.8160431036374405e-02  3.7234647197345851e-02  3.6426904375954826e-02  3.5665643637783358e-02  3.4941545171305315e-02  3.4280930730868575e-02  3.3616885099522119e-02  3.3014408469814835e-02  3.2409399934892315e-02  3.1820271905360409e-02  3.1250044318688899e-02  3.0700583094906090e-02  3.0171771209358489e-02  2.9637773232800008e-02  2.9130575884807275e-02  2.8606268457685654e-02  2.8099619412885191e-02  2.7604953200314718e-02  2.7127985489447792e-02  2.6671727459239021e-02  2.6213313683118973e-02  2.5784316035401430e-02  2.5362581406978238e-02  2.4960497033583138e-02  2.4577820714158528e-02  2.4200116701419281e-02  2.3882373015343305e-02  2.3571503301977537e-02  2.3026392053171970e-02  2.2801583323233322e-02  2.2599339899935966e-02  2.2434901671518955e-02  2.2281615799583491e-02  2.2156170443837362e-02  2.2072712802859700e-02  2.2007851377315361e-02  2.1954003884783337e-02  2.1970064128051962e-02  2.1999701423523518e-02  2.2143788917325324e-02  2.2257659946189064e-02  2.2402093953962386e-02  2.2589710597081810e-02  2.2796692300589103e-02  2.3041417872356893e-02  2.3321045548019000e-02  2.3622657473459523e-02  2.3936655361058729e-02  2.4308550882295867e-02  2.4694836598096095e-02  2.5582324527359476e-02  2.6075879692111156e-02  2.6583344506812923e-02  2.7144575169999789e-02  2.7721644486964358e-02  2.8317172509355650e-02  2.8937904081177426e-02  2.9570275265768664e-02  3.0226473089020833e-02  3.0883490769206285e-02  3.1562901714446576e-02  3.2253842162879236e-02  3.2959141828864870e-02  3.3670709519073735e-02  3.4373910736823693e-02  3.5068037193466656e-02  3.5757099957591798e-02  3.6450478944521900e-02  3.7145775434782938e-02  3.7836187145689537e-02  3.8509426681889128e-02  3.9164367011447362e-02  3.9800087356686061e-02  4.0425633346705812e-02  4.1017303950981035e-02  4.1591335541752553e-02  4.2152406451034866e-02  4.2665109504926468e-02  4.3164745510640354e-02  4.3637359921732219e-02  4.4088184653565447e-02  4.4498690489470326e-02  4.4877627526005250e-02  4.5223845985122198e-02  4.5535721309909724e-02  4.5816138292808270e-02  4.6054410396640114e-02  4.6267119994287877e-02  4.6436242170656714e-02  4.6586993215769132e-02  4.6655039698491774e-02  4.6718895308205395e-02  4.6465714206046282e-02  4.5921549558013461e-02  4.5263703138180345e-02  4.4578080575928852e-02  4.3902692981311414e-02  4.3263732221250475e-02  4.2675171150876344e-02  4.2134140662276227e-02  4.1627625747513775e-02  4.1157450027089294e-02  4.0723773976829816e-02  4.0322780294955646e-02  3.9938144558471680e-02  3.9577363018911536e-02  3.9229031373932230e-02  3.8887090665620586e-02  3.8554321630596342e-02  3.8224733981879304e-02  3.7891737203873836e-02  3.7545863803238246e-02  3.7195841504569491e-02  3.6827234205590163e-02  3.6443672678293758e-02  3.6032850998465975e-02  3.5601602306541524e-02  3.5147116343803228e-02  3.4657578657475423e-02  3.4140666292625743e-02  3.3578423309044619e-02  3.2992114971189319e-02  3.2366782140852320e-02  3.1706565900504365e-02  3.1004113410590083e-02  3.0265129784368516e-02  2.9491579229803111e-02  2.8683457647896732e-02  2.7842817448258523e-02  2.6971678662698267e-02  2.6067977503180923e-02  2.5122075923374749e-02  2.4165101783505852e-02  2.3187057970538726e-02  2.2194914310837234e-02  2.1193758009190572e-02  2.0172265828226170e-02  1.9160152672022576e-02  1.8128815197091842e-02  1.7104180444053946e-02  1.6095274462341960e-02  1.5103108398891854e-02  1.4129754688915036e-02  1.3160527808471796e-02  1.2235907384930824e-02  1.1328311232402308e-02  1.0448534985198092e-02  9.6140567426742807e-03  8.8040695489142295e-03  8.0341689186530160e-03  7.3065777087669998e-03  6.6146952495347308e-03  5.9708292769808814e-03  5.3606891169630253e-03  4.7959935492259340e-03  4.2698658198153478e-03  3.7843026132416899e-03  3.3355702623600902e-03  2.9203211255800889e-03  2.5482087318026056e-03  2.2041820307890062e-03  1.8954674765638427e-03  1.6161993922689884e-03  1.3677031947032093e-03  1.1438501385100973e-03  9.4806050645571008e-04  7.7316221249783669e-04  6.2124639054973187e-04  4.9165942001341747e-04  3.7895708779165694e-04  2.8518038926739149e-04  2.0695532320152613e-04  1.4429260038645693e-04  9.6541330729149060e-05  6.2276429774269908e-05  4.1366711127244374e-05  3.2565659709745136e-05  3.4949611794511373e-05  4.7909445256647550e-05  7.0298320268280954e-05  1.0150700255294400e-04  1.4048470599984373e-04  1.8821083971848663e-04  2.4435038014495274e-04  3.1022544577577021e-04  3.8419855033596369e-04  4.6890864849048996e-04  5.6077397625183760e-04  6.6024550849797122e-04  7.5696359057011206e-04  8.3667729517503478e-04  8.7686516254295143e-04  8.7414483554501673e-04  8.7274494756120957e-04  8.6319852750344872e-04  8.5604119939062227e-04  8.4676235881165620e-04  8.3490733715290138e-04  8.2282276620936718e-04  8.0717299882350588e-04  7.9184131500875622e-04  7.7471946459490844e-04  7.5604643701486767e-04  7.3526498211915349e-04  7.1299241583075001e-04  6.8965795782245870e-04  6.6500324957616914e-04  6.3918967443601796e-04  6.1168852947645496e-04  5.8290773203766044e-04  5.5364029649845111e-04  5.2380226264581988e-04  4.9249820455850063e-04  4.6109517799504727e-04  4.2953058643847766e-04  3.9744785494664575e-04  3.6592003950941960e-04  3.3601804890053406e-04  3.0560971731495660e-04  2.7584285657907275e-04  2.4714730362774965e-04  2.1919170613484662e-04  1.9380844315101522e-04  1.7064584750619815e-04  1.4957375204072598e-04  1.3243998297961154e-04  1.2179738523050079e-04  1.1907302559630358e-04  1.3025673599561903e-04  1.6524646961769464e-04  2.4084522064002597e-04  3.9535896584084345e-04  6.8229750544059433e-04  2.1119067429546238e-03  3.6958284372106852e-03  6.4944787759225273e-03  1.1262951282331499e-02  1.9741687988546568e-02  3.4724066690765241e-02  6.0784239347762746e-02  1.0622313050767453e-01  1.8493098539960828e-01  3.2702573733586809e-01  5.7160169757126178e-01  1.0000000000000000e+00  1.0000000000000000e+00  1.0000000000000000e+00  1.0000000000000000e+00  1.0000000000000000e+00  9.9999999999999989e-01  1.0000000000000000e+00  1.0000000000000000e+00  1.0000000000000000e+00  1.0000000000000000e+00  1.0000000000000000e+00  1.0000000000000000e+00  1.0000000000000000e+00  1.0000000000000000e+00  1.0000000000000000e+00  1.0000000000000000e+00  1.0000000000000000e+00  1.0000000000000000e+00  1.0000000000000000e+00  1.0000000000000000e+00  1.0000000000000000e+00  1.0000000000000000e+00  1.0000000000000000e+00  1.0000000000000000e+00  1.0000000000000000e+00  1.0000000000000000e+00  1.0000000000000000e+00  1.0000000000000000e+00  1.0000000000000000e+00  1.0000000000000000e+00  1.0000000000000000e+00  1.0000000000000000e+00  1.0000000000000000e+00  1.0000000000000000e+00  1.0000000000000000e+00  1.0000000000000000e+00  1.0000000000000000e+00  1.0000000000000000e+00  1.0000000000000000e+00  1.0000000000000000e+00  1.0000000000000000e+00  1.0000000000000000e+00  1.0000000000000000e+00  1.0000000000000000e+00  1.0000000000000000e+00  1.0000000000000000e+00  1.0000000000000000e+00  1.0000000000000000e+00  1.0000000000000000e+00  9.9999999999999989e-01  1.0000000000000000e+00  1.0000000000000000e+00  1.0000000000000000e+00  1.0000000000000000e+00  1.0000000000000000e+00  1.0000000000000000e+00  9.9999999999999989e-01  1.0000000000000000e+00  1.0000000000000000e+00  1.0000000000000000e+00  1.0000000000000000e+00  1.0000000000000000e+00  1.0000000000000000e+00  1.0000000000000000e+00  1.0000000000000000e+00  1.0000000000000000e+00  1.0000000000000000e+00  1.0000000000000000e+00  1.0000000000000000e+00  1.0000000000000000e+00  1.0000000000000000e+00  1.0000000000000000e+00  1.0000000000000000e+00  1.0000000000000000e+00  1.0000000000000000e+00  1.0000000000000000e+00  1.0000000000000000e+00  1.0000000000000000e+00  1.0000000000000000e+00  1.0000000000000000e+00  1.0000000000000000e+00  1.0000000000000000e+00  1.0000000000000000e+00  1.0000000000000000e+00  1.0000000000000000e+00  1.0000000000000000e+00  1.0000000000000000e+00  1.0000000000000000e+00  1.0000000000000000e+00  1.0000000000000000e+00  1.0000000000000000e+00  1.0000000000000000e+00  1.0000000000000000e+00  1.0000000000000000e+00  1.0000000000000000e+00  1.0000000000000000e+00  1.0000000000000000e+00  1.0000000000000000e+00  1.0000000000000000e+00  1.0000000000000000e+00  1.0000000000000000e+00  1.0000000000000000e+00  1.0000000000000000e+00  1.0000000000000000e+00  1.0000000000000000e+00  1.0000000000000000e+00  1.0000000000000000e+00  1.0000000000000000e+00  1.0000000000000000e+00  1.0000000000000000e+00  5.7157114028847122e-01  3.2704093596493716e-01  1.8489428253946730e-01  1.0624102674193636e-01  6.0791860045214828e-02  3.4729984391931312e-02  1.9749920015539404e-02  1.1265825871126999e-02  6.4996825932441852e-03  3.6997043665912845e-03  2.1156193019008958e-03  6.8647542900278542e-04  4.0010815328173928e-04  2.4590375994325205e-04  1.7144121232117059e-04  1.3707017171252643e-04  1.2621519872117376e-04  1.2892878666112429e-04  1.3922972875779011e-04  1.5523794416283412e-04  1.7458783736667703e-04  1.9541547374217114e-04  2.1696664837068469e-04  2.4005859639092742e-04  2.6260232270103193e-04  2.8451639741026893e-04  3.0581408562384781e-04  3.2449360759512891e-04  3.4274322405029509e-04  3.5901579600183423e-04  3.7273636445454394e-04  3.8417293431304952e-04  3.9270808216574211e-04  3.9774853959883221e-04  3.9911169359450470e-04  3.9722333102298467e-04  3.9201836703522757e-04  3.8326862079885940e-04  3.7035299910650321e-04  3.5394492068079487e-04  3.3513691870492755e-04  3.1293906933492184e-04  2.8834004823506399e-04  2.6180749718033257e-04  2.3360288816771639e-04  2.0551137914917681e-04  1.7974485376835608e-04  1.5476904190368841e-04  1.3247300267728919e-04  1.1614988098097040e-04  1.0613202482306410e-04  1.1202733584951761e-04  1.2319868516113324e-04  1.2014395114215244e-03  1.2098940156762045e-03  1.2174239003553335e-03  1.2227155131121234e-03  1.2280315448828609e-03  1.2547573163449134e-03  1.2647257687174980e-03  1.2624175049252165e-03  1.2900050156538132e-03  1.3184954478265478e-03  1.3122839810147521e-03  1.3427041093175848e-03  1.3694705686720090e-03  1.3844759660120781e-03  1.3986640064384134e-03  1.4041235587077636e-03  1.4164395363644321e-03  1.4185496491856322e-03  1.4486532542002831e-03  1.4620880734728184e-03  1.4594614948836245e-03  1.4653469451110447e-03  1.4835820193129315e-03  1.4852335932620609e-03  1.4725436058150223e-03  1.4720075159791784e-03  1.4675262340518326e-03  1.4536078785825986e-03  1.4556336459992218e-03  1.4371730846584700e-03  1.4165453587085188e-03  1.4084715339633136e-03  1.3975269464826842e-03  1.3772078622990560e-03  1.3846490079854014e-03  1.4086696608343206e-03  1.3997054589357878e-03  1.4566034038525895e-03  1.5270697578393941e-03  1.6204067832977149e-03  1.8119271760325662e-03  2.0494961690798725e-03  2.3762787757458355e-03  2.8607285726050479e-03  3.4980982581321323e-03  4.3690697879777774e-03  5.5395800811884740e-03  7.0454509625906036e-03  8.9549059156323017e-03  1.1368514922888161e-02  1.4346557231722195e-02  1.7938906968691461e-02  2.2182325053884559e-02  2.6850834142055902e-02  3.1928758814793824e-02  3.7274269634845862e-02  4.2521795728038360e-02  4.7386843656088744e-02  5.1715677918135639e-02  5.5183390137232911e-02  5.7704614751880524e-02  5.9297244481074131e-02  6.0009180092034139e-02  5.9970422357014254e-02  5.9313093226805634e-02  5.8197489054038321e-02  5.6796307054100728e-02  5.5185421039622609e-02  5.3486981475212261e-02  5.1739207538992353e-02  5.0072186842683247e-02  4.8456614141330963e-02  4.6931401000834524e-02  4.5513846321649364e-02  4.4212553348806909e-02  4.3013672959555729e-02  4.1915290341318891e-02  4.0932130060118949e-02  4.0040066134095276e-02  3.9234612459593740e-02  3.8497796430934594e-02  3.7824996639738512e-02  3.7215941422720986e-02  3.6659235546510141e-02  3.6138375833865831e-02  3.5667159477935584e-02  3.5227536833873849e-02  3.4821886601959742e-02  3.4436793356727911e-02  3.4063680888775746e-02  3.3713530692915494e-02  3.3375127251514272e-02  3.3035773019185435e-02  3.2698485302480859e-02  3.2357438744175085e-02  3.2018248619744040e-02  3.1672315466775659e-02  3.1312744461112048e-02  3.0940256360274098e-02  3.0550351645823200e-02  3.0143740924763417e-02  2.9717387350574533e-02  2.9272327966726665e-02  2.8802025755291387e-02  2.8306137291715897e-02  2.7791880017180966e-02  2.7254328633716397e-02  2.6709849648000040e-02  2.6170374855971991e-02  2.5672594523081405e-02  2.5281824033571230e-02  1.2051484044479791e-03  1.2133100664611725e-03  1.2209268643017966e-03  1.2262085426666648e-03  1.2315018185433430e-03  1.2584346706082765e-03  1.2675463387504284e-03  1.2647513794394546e-03  1.2907748158315717e-03  1.3175030921524886e-03  1.3119137201327883e-03  1.3380279841255440e-03  1.3627446376231695e-03  1.3754141095652106e-03  1.3872533974241879e-03  1.3910584841540221e-03  1.4000071305057718e-03  1.3978313549728768e-03  1.4273813921302303e-03  1.4431428446876331e-03  1.4395374139395921e-03  1.4454579321782162e-03  1.4603300336701070e-03  1.4614542352546342e-03  1.4473868802151867e-03  1.4464523152322309e-03  1.4426277225128455e-03  1.4290827210227605e-03  1.4308326251463569e-03  1.4133683694788034e-03  1.3927259020032599e-03  1.3836768714335721e-03  1.3712316504167767e-03  1.3500848336429993e-03  1.3558018201090892e-03  1.3774561484023846e-03  1.3629200304854862e-03  1.4124029773220554e-03  1.4711403253498032e-03  1.5497722185867414e-03  1.7226611118097241e-03  1.9329167320954943e-03  2.2264808864700205e-03  2.6689141519965409e-03  3.2501833920116122e-03  4.0514754129922252e-03  5.1356883270004764e-03  6.5373691377709833e-03  8.3235019069596069e-03  1.0595579417965306e-02  1.3413503912602310e-02  1.6830856565161548e-02  2.0883526253679192e-02  2.5371166789616862e-02  3.0281648609752028e-02  3.5484389230413825e-02  4.0640158889775180e-02  4.5489681978510957e-02  4.9864846423214600e-02  5.3462412312061725e-02  5.6186451887046705e-02  5.8024742268366396e-02  5.9020369088382256e-02  5.9279438537555303e-02  5.8902108810582464e-02  5.8054798207575461e-02  5.6894357553477944e-02  5.5490432751308931e-02  5.3964164335558271e-02  5.2351418085580040e-02  5.0797393744280120e-02  4.9269759959804503e-02  4.7801044350918552e-02  4.6427755466281424e-02  4.5155145403831538e-02  4.3971677565400082e-02  4.2877155281836041e-02  4.1888174757517056e-02  4.0982758567313149e-02  4.0159919781393112e-02  3.9399920653152287e-02  3.8697499149791724e-02  3.8056168280486372e-02  3.7461560121730866e-02  3.6900815156598842e-02  3.6383694346983089e-02  3.5894403577088445e-02  3.5436528935942048e-02  3.4994681722272825e-02  3.4558848209562038e-02  3.4141838344200676e-02  3.3731336813548549e-02  3.3314094145357714e-02  3.2894757436536234e-02  3.2464606640937664e-02  3.2031511861067265e-02  3.1586909603676737e-02  3.1121636981347608e-02  3.0638500178313221e-02  3.0131460118522389e-02  2.9602293014460383e-02  2.9050107158974204e-02  2.8474167345751443e-02  2.7870918822805329e-02  2.7240004574999536e-02  2.6588326224657274e-02  2.5915338343804467e-02  2.5236327877936792e-02  2.4568514393537563e-02  2.3960240617507688e-02  2.3483149579575736e-02  7.2185270768249399e-01  5.2187361848074232e-01  3.6629911523139863e-01  2.6500508324548733e-01  1.9669914639436842e-01  1.4958724300548912e-01  1.1742657175458102e-01  9.5747223548391436e-02  8.0199233117443161e-02  6.9232918042508418e-02  6.1154616043721730e-02  5.5035933674874235e-02  5.0423868543215164e-02  4.6850693907423649e-02  4.4040639414391437e-02  4.1788372339429239e-02  3.9989777239592163e-02  3.8517328255409343e-02  3.7298624933949753e-02  3.6302055987310185e-02  3.5466736091136208e-02  3.4755023571767241e-02  3.4163733357524435e-02  3.3655401392125243e-02  3.3221238012555311e-02  3.2852348698644951e-02  3.2514700974166387e-02  3.2230578848694298e-02  3.1967959336273138e-02  3.1726309431643646e-02  3.1510391801243633e-02  3.1310546291137449e-02  3.1111256102717342e-02  3.0908859187710261e-02  3.0705008044996211e-02  3.0490614245014327e-02  3.0275651356387254e-02  3.0043088123084427e-02  2.9794663045045997e-02  2.9529436532630089e-02  2.9242640279705460e-02  2.8932492316854529e-02  2.8592066485706103e-02  2.8224364276055104e-02  2.7818051343848287e-02  2.7379905533321779e-02  2.6908461435906902e-02  2.6393884479048398e-02  2.5845607733359685e-02  2.5254318829218126e-02  2.4631070142739835e-02  2.3988404250346724e-02  2.3342118527038141e-02  2.2745375866846360e-02  2.2256977585230500e-02  7.4168041371653580e-03  1.7866461305441537e-04  3.2081236811650572e-02  3.8942165702708649e-02  2.3408455298404639e-02  8.5743737315438517e-04  2.5075443216060771e-04  4.1185894585809006e-02  3.5497669260241775e-02  1.7582176508280374e-02  1.9645008141594787e-03  1.0429838859864988e-04  3.5514970855359686e-02  3.9787109108473766e-02  6.7628184990010092e-03  1.7605377272120526e-04  4.1392437165395014e-02  2.7705824900956733e-02  2.7943621966275141e-04  7.4157050404921416e-03  3.8188924261432534e