<?xml version="1.0"?>
<VTKFile type="UnstructuredGrid"  version="0.1"  >
<UnstructuredGrid>
<Piece  NumberOfPoints="15540" NumberOfCells="30546">
<Points>
<DataArray  type="Float64"  NumberOfComponents="3"  format="ascii">0 0 0  -0.5 -0.5 0  0.5 -0.5 0  0.5 0 0  0.5 0.5 0  -0.5 0.5 0  -0.5 0.0001 0  -0.5 -0.0001 0  0.5 0.1 0  0.5 -0.1 0  -0.5 -0.1 0  -0.5 0.1 0  -0.4900000000000277 -0.5 0  -0.4800000000000555 -0.5 0  -0.4700000000000832 -0.5 0  -0.4600000000001109 -0.5 0  -0.4500000000001387 -0.5 0  -0.4400000000001664 -0.5 0  -0.4300000000001942 -0.5 0  -0.4200000000002219 -0.5 0  -0.4100000000002497 -0.5 0  -0.4000000000002774 -0.5 0  -0.3900000000003052 -0.5 0  -0.3800000000003328 -0.5 0  -0.3700000000003606 -0.5 0  -0.3600000000003883 -0.5 0  -0.3500000000004161 -0.5 0  -0.3400000000004438 -0.5 0  -0.3300000000004716 -0.5 0  -0.3200000000004993 -0.5 0  -0.3100000000005271 -0.5 0  -0.3000000000005548 -0.5 0  -0.2900000000005825 -0.5 0  -0.2800000000006103 -0.5 0  -0.2700000000006381 -0.5 0  -0.2600000000006658 -0.5 0  -0.2500000000006935 -0.5 0  -0.2400000000007212 -0.5 0  -0.230000000000749 -0.5 0  -0.2200000000007767 -0.5 0  -0.2100000000008044 -0.5 0  -0.2000000000008322 -0.5 0  -0.19000000000086 -0.5 0  -0.1800000000008877 -0.5 0  -0.1700000000009154 -0.5 0  -0.1600000000009431 -0.5 0  -0.1500000000009709 -0.5 0  -0.1400000000009986 -0.5 0  -0.1300000000010264 -0.5 0  -0.1200000000010541 -0.5 0  -0.1100000000010818 -0.5 0  -0.1000000000011096 -0.5 0  -0.09000000000113734 -0.5 0  -0.08000000000116503 -0.5 0  -0.07000000000119283 -0.5 0  -0.06000000000122058 -0.5 0  -0.05000000000124827 -0.5 0  -0.04000000000127607 -0.5 0  -0.03000000000130376 -0.5 0  -0.02000000000133151 -0.5 0  -0.01000000000135925 -0.5 0  -1.376121439022882e-12 -0.5 0  0.009999999998640763 -0.5 0  0.01999999999866864 -0.5 0  0.02999999999869629 -0.5 0  0.03999999999872406 -0.5 0  0.04999999999875182 -0.5 0  0.05999999999877947 -0.5 0  0.06999999999880724 -0.5 0  0.079999999998835 -0.5 0  0.08999999999886266 -0.5 0  0.09999999999889042 -0.5 0  0.1099999999989182 -0.5 0  0.1199999999989459 -0.5 0  0.1299999999989737 -0.5 0  0.1399999999990014 -0.5 0  0.1499999999990291 -0.5 0  0.1599999999990568 -0.5 0  0.1699999999990847 -0.5 0  0.1799999999991124 -0.5 0  0.1899999999991401 -0.5 0  0.1999999999991678 -0.5 0  0.2099999999991955 -0.5 0  0.2199999999992234 -0.5 0  0.2299999999992511 -0.5 0  0.2399999999992788 -0.5 0  0.2499999999993066 -0.5 0  0.2599999999993342 -0.5 0  0.269999999999362 -0.5 0  0.2799999999993897 -0.5 0  0.2899999999994175 -0.5 0  0.2999999999994452 -0.5 0  0.3099999999994729 -0.5 0  0.3199999999995007 -0.5 0  0.3299999999995284 -0.5 0  0.3399999999995562 -0.5 0  0.3499999999995839 -0.5 0  0.3599999999996116 -0.5 0  0.3699999999996393 -0.5 0  0.379999999999667 -0.5 0  0.3899999999996949 -0.5 0  0.3999999999997226 -0.5 0  0.4099999999997503 -0.5 0  0.419999999999778 -0.5 0  0.4299999999998058 -0.5 0  0.4399999999998336 -0.5 0  0.4499999999998613 -0.5 0  0.4599999999998891 -0.5 0  0.4699999999999167 -0.5 0  0.4799999999999445 -0.5 0  0.4899999999999722 -0.5 0  0.5 -0.4902110204681464 0  0.5 -0.4804459958734807 0  0.5 -0.4707048677450883 0  0.5 -0.4609875815766065 0  0.5 -0.4512940759251849 0  0.5 -0.4416242912883993 0  0.5 -0.4319781678689807 0  0.5 -0.4223556545383647 0  0.5 -0.4127566896324213 0  0.5 -0.4031812128200121 0  0.5 -0.3936291733057916 0  0.5 -0.3841005081172659 0  0.5 -0.3745951585781932 0  0.5 -0.3651130778999337 0  0.5 -0.3556541993788045 0  0.5 -0.3462184677228392 0  0.5 -0.3368058273705318 0  0.5 -0.3274162224888609 0  0.5 -0.3180495969712945 0  0.5 -0.3087058944357755 0  0.5 -0.299385058222682 0  0.5 -0.2900870313927414 0  0.5 -0.2808117567250807 0  0.5 -0.2715591844628491 0  0.5 -0.2623292564012653 0  0.5 -0.253121909553727 0  0.5 -0.2439371050851549 0  0.5 -0.2347747685524501 0  0.5 -0.2256348634421331 0  0.5 -0.2165173209784076 0  0.5 -0.207422087829958 0  0.5 -0.1983491207029381 0  0.5 -0.1892983550950482 0  0.5 -0.1802697378305253 0  0.5 -0.1712632154965152 0  0.5 -0.1622787344187354 0  0.5 -0.1533162406595534 0  0.5 -0.1443756800160514 0  0.5 -0.1354569980180493 0  0.5 -0.1265601399261414 0  0.5 -0.1176850622761093 0  0.5 -0.1088317009011999 0  0.5 -0.09166666666668973 0  0.5 -0.08333333333337943 0  0.5 -0.07500000000006915 0  0.5 -0.06666666666675886 0  0.5 -0.05833333333344858 0  0.5 -0.05000000000013693 0  0.5 -0.04166666666678191 0  0.5 -0.03333333333342643 0  0.5 -0.02500000000006916 0  0.5 -0.01666666666671188 0  0.5 -0.00833333333335548 0  0.5 0.008333333333318314 0  0.5 0.01666666666663358 0  0.5 0.02499999999994162 0  0.5 0.03333333333325101 0  0.5 0.04166666666655769 0  0.5 0.04999999999986843 0  0.5 0.05833333333322258 0  0.5 0.06666666666657715 0  0.5 0.07499999999993352 0  0.5 0.08333333333328992 0  0.5 0.09166666666664541 0  0.5 0.1088317009011616 0  0.5 0.1176850622760307 0  0.5 0.1265601399260203 0  0.5 0.1354569980178909 0  0.5 0.1443756800158549 0  0.5 0.153316240659315 0  0.5 0.1622787344184454 0  0.5 0.1712632154961752 0  0.5 0.1802697378301332 0  0.5 0.1892983550946039 0  0.5 0.1983491207024433 0  0.5 0.2074220878294123 0  0.5 0.216517320977811 0  0.5 0.2256348634414833 0  0.5 0.2347747685517479 0  0.5 0.2439371050844009 0  0.5 0.2531219095529224 0  0.5 0.2623292564004089 0  0.5 0.2715591844619371 0  0.5 0.2808117567241139 0  0.5 0.290087031391723 0  0.5 0.2993850582216101 0  0.5 0.3087058944347426 0  0.5 0.3180495969703129 0  0.5 0.3274162224879299 0  0.5 0.3368058273696494 0  0.5 0.3462184677220051 0  0.5 0.3556541993780186 0  0.5 0.3651130778991989 0  0.5 0.3745951585775107 0  0.5 0.3841005081166359 0  0.5 0.3936291733052134 0  0.5 0.4031812128194852 0  0.5 0.412756689631945 0  0.5 0.4223556545379392 0  0.5 0.431978167868607 0  0.5 0.4416242912880781 0  0.5 0.4512940759249164 0  0.5 0.4609875815763912 0  0.5 0.4707048677449264 0  0.5 0.4804459958733726 0  0.5 0.4902110204680924 0  0.4900000000000277 0.5 0  0.4800000000000555 0.5 0  0.4700000000000832 0.5 0  0.4600000000001109 0.5 0  0.4500000000001387 0.5 0  0.4400000000001664 0.5 0  0.4300000000001942 0.5 0  0.4200000000002219 0.5 0  0.4100000000002497 0.5 0  0.4000000000002774 0.5 0  0.3900000000003052 0.5 0  0.3800000000003328 0.5 0  0.3700000000003606 0.5 0  0.3600000000003883 0.5 0  0.3500000000004161 0.5 0  0.3400000000004438 0.5 0  0.3300000000004716 0.5 0  0.3200000000004993 0.5 0  0.3100000000005271 0.5 0  0.3000000000005548 0.5 0  0.2900000000005825 0.5 0  0.2800000000006103 0.5 0  0.2700000000006381 0.5 0  0.2600000000006658 0.5 0  0.2500000000006935 0.5 0  0.2400000000007212 0.5 0  0.230000000000749 0.5 0  0.2200000000007767 0.5 0  0.2100000000008044 0.5 0  0.2000000000008322 0.5 0  0.19000000000086 0.5 0  0.1800000000008877 0.5 0  0.1700000000009154 0.5 0  0.1600000000009431 0.5 0  0.1500000000009709 0.5 0  0.1400000000009986 0.5 0  0.1300000000010264 0.5 0  0.1200000000010541 0.5 0  0.1100000000010818 0.5 0  0.1000000000011096 0.5 0  0.09000000000113734 0.5 0  0.08000000000116503 0.5 0  0.07000000000119283 0.5 0  0.06000000000122058 0.5 0  0.05000000000124827 0.5 0  0.04000000000127607 0.5 0  0.03000000000130376 0.5 0  0.02000000000133151 0.5 0  0.01000000000135925 0.5 0  1.376121439022882e-12 0.5 0  -0.009999999998640763 0.5 0  -0.01999999999866864 0.5 0  -0.02999999999869629 0.5 0  -0.03999999999872406 0.5 0  -0.04999999999875182 0.5 0  -0.05999999999877947 0.5 0  -0.06999999999880724 0.5 0  -0.079999999998835 0.5 0  -0.08999999999886266 0.5 0  -0.09999999999889042 0.5 0  -0.1099999999989182 0.5 0  -0.1199999999989459 0.5 0  -0.1299999999989737 0.5 0  -0.1399999999990014 0.5 0  -0.1499999999990291 0.5 0  -0.1599999999990568 0.5 0  -0.1699999999990847 0.5 0  -0.1799999999991124 0.5 0  -0.1899999999991401 0.5 0  -0.1999999999991678 0.5 0  -0.2099999999991955 0.5 0  -0.2199999999992234 0.5 0  -0.2299999999992511 0.5 0  -0.2399999999992788 0.5 0  -0.2499999999993066 0.5 0  -0.2599999999993342 0.5 0  -0.269999999999362 0.5 0  -0.2799999999993897 0.5 0  -0.2899999999994175 0.5 0  -0.2999999999994452 0.5 0  -0.3099999999994729 0.5 0  -0.3199999999995007 0.5 0  -0.3299999999995284 0.5 0  -0.3399999999995562 0.5 0  -0.3499999999995839 0.5 0  -0.3599999999996116 0.5 0  -0.3699999999996393 0.5 0  -0.379999999999667 0.5 0  -0.3899999999996949 0.5 0  -0.3999999999997226 0.5 0  -0.4099999999997503 0.5 0  -0.419999999999778 0.5 0  -0.4299999999998058 0.5 0  -0.4399999999998336 0.5 0  -0.4499999999998613 0.5 0  -0.4599999999998891 0.5 0  -0.4699999999999167 0.5 0  -0.4799999999999445 0.5 0  -0.4899999999999722 0.5 0  -0.5 0.4902110204681464 0  -0.5 0.4804459958734807 0  -0.5 0.4707048677450883 0  -0.5 0.4609875815766065 0  -0.5 0.4512940759251849 0  -0.5 0.4416242912883993 0  -0.5 0.4319781678689807 0  -0.5 0.4223556545383647 0  -0.5 0.4127566896324213 0  -0.5 0.4031812128200121 0  -0.5 0.3936291733057916 0  -0.5 0.3841005081172659 0  -0.5 0.3745951585781932 0  -0.5 0.3651130778999337 0  -0.5 0.3556541993788045 0  -0.5 0.3462184677228392 0  -0.5 0.3368058273705318 0  -0.5 0.3274162224888609 0  -0.5 0.3180495969712945 0  -0.5 0.3087058944357755 0  -0.5 0.299385058222682 0  -0.5 0.2900870313927414 0  -0.5 0.2808117567250807 0  -0.5 0.2715591844628491 0  -0.5 0.2623292564012653 0  -0.5 0.253121909553727 0  -0.5 0.2439371050851549 0  -0.5 0.2347747685524501 0  -0.5 0.2256348634421331 0  -0.5 0.2165173209784076 0  -0.5 0.207422087829958 0  -0.5 0.1983491207029381 0  -0.5 0.1892983550950482 0  -0.5 0.1802697378305253 0  -0.5 0.1712632154965152 0  -0.5 0.1622787344187354 0  -0.5 0.1533162406595534 0  -0.5 0.1443756800160514 0  -0.5 0.1354569980180493 0  -0.5 0.1265601399261414 0  -0.5 0.1176850622761093 0  -0.5 0.1088317009011999 0  -0.5 0.09167500000001694 0  -0.5 0.08335000000003931 0  -0.5 0.07502500000006167 0  -0.5 0.06670000000008947 0  -0.5 0.05837500000011001 0  -0.5 0.0500500000001328 0  -0.5 0.0417250000001127 0  -0.5 0.03340000000008944 0  -0.5 0.02507500000006573 0  -0.5 0.01675000000004653 0  -0.5 0.008425000000027341 
[...]
<PointData  Scalars="f_25"> 
<DataArray  type="Float64"  Name="f_25"  format="ascii">1.0000000000000000e+00  1.6425417760063592e-09  2.6126817553707234e-06  9.9502292852300733e-01  1.1445685872692113e-06  1.6171552670587240e-08  1.0000000000000000e+00  1.0000000000000000e+00  2.0825048307449743e-03  1.1727739255858332e-03  1.1821039608116109e-03  1.1815696959781015e-03  1.8244993744488246e-09  2.2700933327427540e-09  2.8573248505153374e-09  3.5009187797407937e-09  4.1162085425065367e-09  4.7121146578367451e-09  5.2864983384186072e-09  5.8832863670101586e-09  6.4589270066200960e-09  7.0536295190929325e-09  7.6727046629768388e-09  8.3694644638112613e-09  9.1079678460484971e-09  9.9131030987809878e-09  1.0809112194615903e-08  1.1818468188352439e-08  1.2998509881375647e-08  1.4273997727236321e-08  1.5705833109453245e-08  1.7323408494945316e-08  1.9050022216063612e-08  2.0953197818381031e-08  2.3099544792670586e-08  2.5349569900672371e-08  2.7835060452782160e-08  3.0528118797585439e-08  3.3434552043734750e-08  3.6639810686391086e-08  3.9978512701467629e-08  4.3661852984594132e-08  4.7540359267496253e-08  5.1691422604381578e-08  5.6101060003108922e-08  6.0831488677944029e-08  6.5832493775328437e-08  7.1084512267222518e-08  7.6636337900879643e-08  8.2506622706996038e-08  8.8658758643504439e-08  9.5048496518869783e-08  1.0177657632124880e-07  1.0881905363130632e-07  1.1604917882095773e-07  1.2364333675682729e-07  1.3144342149327733e-07  1.3962602569619178e-07  1.4794414331184673e-07  1.5652463771615888e-07  1.6542601158982044e-07  1.7449515611879625e-07  1.8380064307153288e-07  1.9332548054626252e-07  2.0316035678388105e-07  2.1319843192724334e-07  2.2325204573780865e-07  2.3353963899171938e-07  2.4405171516011924e-07  2.5479256603810845e-07  2.6567573762730066e-07  2.7665801857320138e-07  2.8803073917537558e-07  2.9962639773808751e-07  3.1115730422200792e-07  3.2299780924211877e-07  3.3512284035669201e-07  3.4727680243395755e-07  3.5989587390151331e-07  3.7259559507886665e-07  3.8558451763315529e-07  3.9898306378983925e-07  4.1274353328878231e-07  4.2690668845551548e-07  4.4144599773127108e-07  4.5623756209138121e-07  4.7162815275579084e-07  4.8770590421335355e-07  5.0427445467726156e-07  5.2168291742642708e-07  5.4015549917723875e-07  5.5934703255779864e-07  5.7997047939898324e-07  6.0154043491440649e-07  6.2447770143382922e-07  6.4927065184606068e-07  6.7638738651072125e-07  7.0564716235744213e-07  7.3787449994615570e-07  7.7435792976552372e-07  8.1476949733009246e-07  8.6141732775780415e-07  9.1512001273849065e-07  9.8044222960651259e-07  1.0574688896284122e-06  1.1545679050737231e-06  1.2790212010450866e-06  1.4427220757050839e-06  1.6574117137346961e-06  1.9389819036575886e-06  2.3027157420072601e-06  2.4207871329948839e-06  2.0802182893503161e-06  1.8143956736247446e-06  1.6067788081662961e-06  1.4581538163435179e-06  1.3487512061515691e-06  1.2682566311226422e-06  1.2064447780129469e-06  1.1581703064625463e-06  1.1205645618310738e-06  1.0900313490594249e-06  1.0658782591917459e-06  1.0460869025072734e-06  1.0305125523434565e-06  1.0175086564518508e-06  1.0068474946024111e-06  9.9845240682327197e-07  9.9162682006132375e-07  9.8610335726610638e-07  9.8214048652515682e-07  9.7939293303483485e-07  9.7837233175516410e-07  9.7945513020003294e-07  9.8373557950663814e-07  9.9329104705939385e-07  1.0118128390036408e-06  1.0467230398478792e-06  1.1079498330823801e-06  1.2236881721985442e-06  1.4364013937216759e-06  1.8214422967014779e-06  2.5486127823584796e-06  3.8547488312154508e-06  6.2598751580633173e-06  1.0540148317925293e-05  1.8677997699835919e-05  3.3509696897278858e-05  6.0757493610314089e-05  1.0974793814393496e-04  1.9714491601245657e-04  3.5938708189582505e-04  6.5190947972855972e-04  2.0750207409811409e-03  3.6548915565508522e-03  6.4453591722982619e-03  1.1191125288617876e-02  1.9600160388726806e-02  3.4406584457713864e-02  6.0188848505785215e-02  1.0529121473775455e-01  1.8364223071022026e-01  3.2599668210488214e-01  5.7237771395781434e-01  9.8585119806629762e-01  5.7429606837669744e-01  3.3103167069068618e-01  1.8533925071018989e-01  1.0562855373262954e-01  6.0407203300866130e-02  3.4448546029689366e-02  1.9672039714253426e-02  1.1176421845431826e-02  6.4687537047775365e-03  3.6834774977642973e-03  1.1569803351906053e-03  6.3753371723031607e-04  3.4950285761535841e-04  1.9428558505202827e-04  1.0725776472258390e-04  5.8847801735275575e-05  3.2501540810376563e-05  1.8040792057986117e-05  1.0447230232770789e-05  6.1871061428219939e-06  3.8722650722214149e-06  2.5893143155686986e-06  1.9116222828159911e-06  1.5388201147166061e-06  1.3376364847034955e-06  1.2319453341039870e-06  1.1725368768452844e-06  1.1413632155128302e-06  1.1252333168247623e-06  1.1174105668004725e-06  1.1140573677417210e-06  1.1136712833060535e-06  1.1138753600159452e-06  1.1157214435188565e-06  1.1173519391409426e-06  1.1194581397452790e-06  1.1222445802140668e-06  1.1240315986011960e-06  1.1262169345758472e-06  1.1285880222681046e-06  1.1308334824784567e-06  1.1328197642332198e-06  1.1345948907274798e-06  1.1364535248555594e-06  1.1381347307895196e-06  1.1396485415371289e-06  1.1408328172655011e-06  1.1420666486735371e-06  1.1429208214001182e-06  1.1442085539406947e-06  1.1439377836479435e-06  1.1444699488716001e-06  1.1368573239686486e-06  1.1206359650768172e-06  1.1001447434249671e-06  1.0776994936229923e-06  1.0543386235698177e-06  1.0309934278312357e-06  1.0081135511483672e-06  9.8583673894203745e-07  9.6374005842698467e-07  9.4227262835355418e-07  9.2138824839997183e-07  9.0113488433954761e-07  8.8106393886063203e-07  8.6172525021209425e-07  8.4277687926867587e-07  8.2411048227377215e-07  8.0590442449929378e-07  7.8804583013878596e-07  7.7057811817517945e-07  7.5314127288824781e-07  7.3616299462611739e-07  7.1923942943365220e-07  7.0263473076333280e-07  6.8588688608324030e-07  6.6942866794489047e-07  6.5315421880389525e-07  6.3668091901508556e-07  6.2032917762365869e-07  6.0359621542156974e-07  5.8711825014534374e-07  5.7048548582087271e-07  5.5378806816935451e-07  5.3684297037833829e-07  5.1979398360837821e-07  5.0265812990585379e-07  4.8542767771666459e-07  4.6808506385838662e-07  4.5063715497453307e-07  4.3301950785481327e-07  4.1506237763328451e-07  3.9730446150110731e-07  3.7950700956181778e-07  3.6177210991065287e-07  3.4417377291980035e-07  3.2646227367454571e-07  3.0913865493902217e-07  2.9168737774393744e-07  2.7451734106669647e-07  2.5774894986742059e-07  2.4138896859449424e-07  2.2545567566529019e-07  2.0968534130270798e-07  1.9472040551681705e-07  1.8009061020129472e-07  1.6595840610769690e-07  1.5259723456546429e-07  1.3965679182378359e-07  1.2739429620728354e-07  1.1582399483546944e-07  1.0483173580805163e-07  9.4619632414586296e-08  8.4948570927094426e-08  7.5998264637862907e-08  6.7657517867612914e-08  5.9962647227491697e-08  5.2851940517814954e-08  4.6268500560512719e-08  4.0365063836342658e-08  3.4903721585572915e-08  2.9999502849222545e-08  2.5558799173240869e-08  2.1603252448682907e-08  1.8040454929088887e-08  1.4923112377861533e-08  1.2138729425877884e-08  9.7210465591229276e-09  7.6610865607487325e-09  5.8738173171827804e-09  4.3919634655845208e-09  3.1630758733017454e-09  2.1912155419743715e-09  1.4634558450890150e-09  9.5936419522596140e-10  6.7820954535757003e-10  5.9759086801826669e-10  7.0545380286699048e-10  9.9013804622874840e-10  1.4339429417550820e-09  2.0277721140361174e-09  2.7547279822614309e-09  3.6348542456294355e-09  4.6631095110480553e-09  5.8646123769732675e-09  7.2108051193233973e-09  8.7511260367589342e-09  1.0421094076727161e-08  1.2230135502194865e-08  1.3990132992456282e-08  1.5441977743357682e-08  1.6173476985341508e-08  1.6120638197739414e-08  1.6089769511104977e-08  1.5908191115118551e-08  1.5767974224290987e-08  1.5587268743062054e-08  1.5358337941434421e-08  1.5124103808780503e-08  1.4823962119427864e-08  1.4528850211503671e-08  1.4201351433813162e-08  1.3846590173045016e-08  1.3455654966962510e-08  1.3042798704831752e-08  1.2619155595798480e-08  1.2188430268725526e-08  1.1767850069353700e-08  1.1375061364889074e-08  1.1064403294812375e-08  1.0950960781928291e-08  1.1196667642502084e-08  1.2107596424425648e-08  1.4313092030411962e-08  1.8949457054162400e-08  2.8016920707557742e-08  4.5349517175198787e-08  7.7815466079319694e-08  1.3905509454452807e-07  2.5315893050902536e-07  4.6401273634204975e-07  8.5329887033854030e-07  1.5606668451286150e-06  2.8729965535688940e-06  5.2966183555603055e-06  9.6256460549128823e-06  1.7807320453846700e-05  3.2580569402323113e-05  5.9489743077169694e-05  1.0813380537005537e-04  1.9581919520556814e-04  3.5979693666855501e-04  6.5481782199633745e-04  2.0961164978572627e-03  3.6840474720489682e-03  6.4858480834892596e-03  1.1256664957984774e-02  1.9737252561149072e-02  3.4720941320498105e-02  6.0782049342628597e-02  1.0622165162352411e-01  1.8493003603507685e-01  3.2702515526292286e-01  5.7160142369699984e-01  1.0000000000000000e+00  1.0000000000000000e+00  1.0000000000000000e+00  1.0000000000000000e+00  1.0000000000000000e+00  1.0000000000000000e+00  1.0000000000000000e+00  1.0000000000000000e+00  1.0000000000000000e+00  1.0000000000000000e+00  1.0000000000000000e+00  1.0000000000000000e+00  1.0000000000000000e+00  1.0000000000000000e+00  1.0000000000000000e+00  1.0000000000000000e+00  1.0000000000000000e+00  1.0000000000000000e+00  1.0000000000000000e+00  1.0000000000000000e+00  1.0000000000000000e+00  1.0000000000000000e+00  1.0000000000000000e+00  1.0000000000000000e+00  1.0000000000000000e+00  1.0000000000000000e+00  1.0000000000000000e+00  1.0000000000000000e+00  1.0000000000000000e+00  1.0000000000000000e+00  1.0000000000000000e+00  1.0000000000000000e+00  1.0000000000000000e+00  1.0000000000000000e+00  1.0000000000000000e+00  1.0000000000000000e+00  1.0000000000000000e+00  1.0000000000000000e+00  1.0000000000000000e+00  1.0000000000000000e+00  1.0000000000000000e+00  1.0000000000000000e+00  1.0000000000000000e+00  1.0000000000000000e+00  1.0000000000000000e+00  1.0000000000000000e+00  1.0000000000000000e+00  1.0000000000000000e+00  1.0000000000000000e+00  1.0000000000000000e+00  1.0000000000000000e+00  1.0000000000000000e+00  1.0000000000000000e+00  1.0000000000000000e+00  1.0000000000000000e+00  1.0000000000000000e+00  1.0000000000000000e+00  1.0000000000000000e+00  1.0000000000000000e+00  1.0000000000000000e+00  9.9999999999999989e-01  1.0000000000000000e+00  1.0000000000000000e+00  1.0000000000000000e+00  1.0000000000000000e+00  1.0000000000000000e+00  1.0000000000000000e+00  1.0000000000000000e+00  1.0000000000000000e+00  1.0000000000000000e+00  1.0000000000000000e+00  1.0000000000000000e+00  1.0000000000000000e+00  1.0000000000000000e+00  1.0000000000000000e+00  1.0000000000000000e+00  1.0000000000000000e+00  1.0000000000000000e+00  1.0000000000000000e+00  1.0000000000000000e+00  1.0000000000000000e+00  1.0000000000000000e+00  1.0000000000000000e+00  1.0000000000000000e+00  1.0000000000000000e+00  1.0000000000000000e+00  1.0000000000000000e+00  1.0000000000000000e+00  1.0000000000000000e+00  1.0000000000000000e+00  1.0000000000000000e+00  1.0000000000000000e+00  1.0000000000000000e+00  1.0000000000000000e+00  1.0000000000000000e+00  1.0000000000000000e+00  1.0000000000000000e+00  1.0000000000000000e+00  1.0000000000000000e+00  1.0000000000000000e+00  1.0000000000000000e+00  1.0000000000000000e+00  1.0000000000000000e+00  1.0000000000000000e+00  1.0000000000000000e+00  1.0000000000000000e+00  1.0000000000000000e+00  1.0000000000000000e+00  1.0000000000000000e+00  1.0000000000000000e+00  5.7157081540523935e-01  3.2704024578130586e-01  1.8489315725267383e-01  1.0623927488338640e-01  6.0789268502000483e-02  3.4726290632442640e-02  1.9744685370465420e-02  1.1258434713672572e-02  6.4895802873056255e-03  3.6859954472972601e-03  2.0973560245580308e-03  6.5513215419753159e-04  3.5991693121426222e-04  1.9537153358492349e-04  1.0819480620361132e-04  5.9557017114776548e-05  3.2618750864922029e-05  1.7822782382014342e-05  9.6356739905703012e-06  5.2996984883293703e-06  2.8740678082858447e-06  1.5614561996265806e-06  8.5392533727613369e-07  4.6449849008763735e-07  2.5331168361354821e-07  1.3897846415137927e-07  7.7541466229204590e-08  4.4870768926683774e-08  2.7322450511580401e-08  1.7991537968375775e-08  1.3060375247949676e-08  1.0523389306542354e-08  9.2345549911317703e-09  8.5682608953028001e-09  8.2079091828136492e-09  7.9940546262516880e-09  7.8227478763875362e-09  7.6430502068516268e-09  7.4166931143493917e-09  7.1387230515530958e-09  6.8207087015806951e-09  6.4389525140679644e-09  6.0060729435733346e-09  5.5281174969390109e-09  5.0056262759606916e-09  4.4695310073639041e-09  3.9459963109274867e-09  3.4108435386504398e-09  2.8847450615190795e-09  2.4170579119238669e-09  2.0082828953977723e-09  1.8042341137929356e-09  1.6689029190140364e-09  1.1789204665794361e-03  1.1823895998600864e-03  1.1825378155190811e-03  1.1783922064881353e-03  1.1725500314713529e-03  1.1865520396439320e-03  1.1823445750927346e-03  1.1649286796292715e-03  1.1761302246945241e-03  1.1877958682669101e-03  1.1644084450026172e-03  1.1772142402776584e-03  1.1866794713794298e-03  1.1848100182134235e-03  1.1827273897092913e-03  1.1728082565224509e-03  1.1708286652403672e-03  1.1599253416235797e-03  1.1781973856886587e-03  1.1818606582563727e-03  1.1710665968948856e-03  1.1707876928202590e-03  1.1852155691752938e-03  1.1857318436249140e-03  1.1735557825866437e-03  1.1765844111232056e-03  1.1783771954476964e-03  1.1720843563475995e-03  1.1845678731550783e-03  1.1781992941864029e-03  1.1702466330457155e-03  1.1758000454789750e-03  1.1763654951321657e-03  1.1653856351311659e-03  1.1765436392569236e-03  1.1925437595806496e-03  1.1657455038002514e-03  1.1823811471448594e-03  1.1817499783588873e-03  1.1674917598298192e-03  1.1922196091389652e-03  1.1867584524769320e-03  1.1722711838555360e-03  1.1877603538373849e-03  1.1776517294356122e-03  1.1860800202535462e-03  1.2155904459634464e-03  1.2378693685326677e-03  1.2542705084426736e-03  1.3074055963587816e-03  1.3636512317691384e-03  1.4196930113438537e-03  1.5298157387493277e-03  1.6183729793241039e-03  1.7101283539667819e-03  1.8249479765976306e-03  1.9021263831278518e-03  1.9490013805545400e-03  2.0435492969906608e-03  2.0707252145393956e-03  2.0796921603302102e-03  2.1046750486672788e-03  2.0669652953735030e-03  2.0828115452678772e-03  2.0820996015160601e-03  2.0764735671090885e-03  2.0540929046284073e-03  2.0166563330661761e-03  2.0447011628175276e-03  2.0491948508717015e-03  2.0366050229543254e-03  2.0207761201137672e-03  2.0232200033632798e-03  2.0171312762167046e-03  1.9839010484110761e-03  2.0004409469760284e-03  1.9895318114283552e-03  1.9697869448379573e-03  1.9888813424572601e-03  1.9767006023071183e-03  1.9625769973026191e-03  1.9861452633850446e-03  1.9960583717329064e-03  1.9759358081131305e-03  1.9689812754292140e-03  2.0184570316030188e-03  2.0119430585741845e-03  2.0139096331737135e-03  2.0140290207104803e-03  1.9877357715677693e-03  2.0100656062725739e-03  2.0269154879251632e-03  2.0274224272217953e-03  2.0283265024625230e-03  1.9974362956984488e-03  2.0263530304442797e-03  2.0425113560433410e-03  2.0519503388566683e-03  2.0414973182519853e-03  2.0466886541456787e-03  2.0589365265191372e-03  2.0706588757569712e-03  2.0720737449107544e-03  2.0855888367358462e-03  2.0959216854813038e-03  2.0853175522947778e-03  2.0907781614129669e-03  2.0861248254553126e-03  2.0672827575013682e-03  2.0966228483856823e-03  2.1106344658779644e-03  1.1794953465088728e-03  1.1825744229371773e-03  1.1827081228609941e-03  1.1785089039327834e-03  1.1727013390746186e-03  1.1871304232222396e-03  1.1825190943697569e-03  1.1653069344046089e-03  1.1759463338389567e-03  1.1871415289462304e-03  1.1659241126300386e-03  1.1762300899798746e-03  1.1856517955234297e-03  1.1836511272903527e-03  1.1814980685592143e-03  1.1721849739924576e-03  1.1690811084386775e-03  1.1560850131589685e-03  1.1758512055922428e-03  1.1836948114228479e-03  1.1735515713030564e-03  1.1746542897104154e-03  1.1869492506993897e-03  1.1876847810903949e-03  1.1745469462055753e-03  1.1772742700429967e-03  1.1795157945385126e-03  1.1732251269120923e-03  1.1848456090567915e-03  1.1787047858313204e-03  1.1700868299114482e-03  1.1742567881256499e-03  1.1733523213516637e-03  1.1623195563254521e-03  1.1733668666432152e-03  1.1899297608593321e-03  1.1625891791174250e-03  1.1791153855169898e-03  1.1773933500650109e-03  1.1627044220324791e-03  1.1881371555478568e-03  1.1816217250224911e-03  1.1669649903366505e-03  1.1812386831271998e-03  1.1665856243577132e-03  1.1665036006844333e-03  1.1815068250134290e-03  1.1826943760760531e-03  1.1675882875935477e-03  1.1770001200040862e-03  1.1772509759886039e-03  1.1600261808118327e-03  1.1784371711411482e-03  1.1755082084319005e-03  1.1680577259452470e-03  1.1772438570529656e-03  1.1733071644517961e-03  1.1578009401956727e-03  1.1796420775613179e-03  1.1752078875488974e-03  1.1677228793687921e-03  1.1774256033146341e-03  1.1561066633111916e-03  1.1667521350093378e-03  1.1694963153714691e-03  1.1696530919109488e-03  1.1607398967162293e-03  1.1439808843839517e-03  1.1647921629787837e-03  1.1734253268903606e-03  1.1720132434546776e-03  1.1665421774527272e-03  1.1743148591499980e-03  1.1764522124497576e-03  1.1627926781721638e-03  1.1779755702222893e-03  1.1765281091511558e-03  1.1685108336469748e-03  1.1817347254330856e-03  1.1741343311580197e-03  1.1631343533904321e-03  1.1732139313529904e-03  1.1742570669406223e-03  1.1599024729166481e-03  1.1493196826737194e-03  1.1738385596580200e-03  1.1673913468601114e-03  1.1678581019220703e-03  1.1690669188657125e-03  1.1553263520248296e-03  1.1689502967026854e-03  1.1786982811492510e-03  1.1766586322567401e-03  1.1727716040133085e-03  1.1510780305496516e-03  1.1651600332579866e-03  1.1725481359766944e-03  1.1767282908532288e-03  1.1681685611618069e-03  1.1678743138788133e-03  1.1702543722645568e-03  1.1724265579821089e-03  1.1700113660525495e-03  1.1751069323871557e-03  1.1796180850911105e-03  1.1736448131127696e-03  1.1756711061983568e-03  1.1735994612131987e-03  1.1623419394073858e-03  1.1797961482305198e-03  1.1894298229503475e-03  9.9245973630331619e-01  9.9779283666321239e-01  9.9369372228596820e-01  9.9513800103722605e-01  9.9583923956653664e-01  9.9526756161701579e-01  9.9571614282975074e-01  9.9609267501486365e-01  9.9499091547056684e-01  9.9547231388953106e-01  9.9413455484226809e-01  9.9721703043710275e-01  9.9458383965504604e-01  9.9627772416677696e-01  9.9572821630213382e-01  9.9621723455719768e-01  9.9603437778835580e-01  9.9595760175963677e-01  9.9622096244260749e-01  9.9619557343065757e-01  9.9628904481448533e-01  9.9639215989578744e-01  9.9643812496662620e-01  9.9672783461441505e-01  9.9673639132073388e-01  9.9498453956853372e-01  9.9828607268241731e-01  9.9544611969081176e-01  9.9685495052756534e-01  9.9570380893445631e-01  9.9501148099966941e-01  9.9508205410041617e-01  9.9578109350523614e-01  9.9685207511447238e-01  9.9541783246029125e-01  9.9845999238225391e-01  9.9506715755929642e-01  9.9507455682760604e-01  9.9804549428309286e-01  9.9454369430694045e-01  9.9544259869163032e-01  9.9519301027894325e-01  9.9634927768448478e-01  9.9598207611489020e-01  9.9556664889098123e-01  9.9565701521919814e-01  9.9480081536620746e-01  9.9548964608159540e-01  9.9596814996400518e-01  9.9536682352276673e-01  9.9597367263186787e-01  9.9533239542253649e-01  9.9601712514591145e-01  9.9426647595407758e-01  9.9661402058370396e-01  1.2234582920230976e-07  5.3982006708525756e-09  5.0855777323305954e-07  7.5561283798444953e-07  8.2861647756134011e-07  3.1132540845138946e-07  3.5106047950012733e-07  1.2337415739912175e-06  6.2011292618833808e-07  2.8013719603304668e-07  3.1840137806785349e-08  2.1000616496004321e-09  2.0069474260624756e-06  8.9921746261526253e-07  1.6787442019518838e-06  1.5097729093816419e-06  3.3888778957661792e-06  4.5437973402895636e-07  4.5620897349808562e-09  1.1821824222159976e-07  4.9971459445932752e