<?xml version="1.0"?>
<VTKFile type="UnstructuredGrid"  version="0.1"  >
<UnstructuredGrid>
<Piece  NumberOfPoints="15540" NumberOfCells="30546">
<Points>
<DataArray  type="Float64"  NumberOfComponents="3"  format="ascii">0 0 0  -0.5 -0.5 0  0.5 -0.5 0  0.5 0 0  0.5 0.5 0  -0.5 0.5 0  -0.5 0.0001 0  -0.5 -0.0001 0  0.5 0.1 0  0.5 -0.1 0  -0.5 -0.1 0  -0.5 0.1 0  -0.4900000000000277 -0.5 0  -0.4800000000000555 -0.5 0  -0.4700000000000832 -0.5 0  -0.4600000000001109 -0.5 0  -0.4500000000001387 -0.5 0  -0.4400000000001664 -0.5 0  -0.4300000000001942 -0.5 0  -0.4200000000002219 -0.5 0  -0.4100000000002497 -0.5 0  -0.4000000000002774 -0.5 0  -0.3900000000003052 -0.5 0  -0.3800000000003328 -0.5 0  -0.3700000000003606 -0.5 0  -0.3600000000003883 -0.5 0  -0.3500000000004161 -0.5 0  -0.3400000000004438 -0.5 0  -0.3300000000004716 -0.5 0  -0.3200000000004993 -0.5 0  -0.3100000000005271 -0.5 0  -0.3000000000005548 -0.5 0  -0.2900000000005825 -0.5 0  -0.2800000000006103 -0.5 0  -0.2700000000006381 -0.5 0  -0.2600000000006658 -0.5 0  -0.2500000000006935 -0.5 0  -0.2400000000007212 -0.5 0  -0.230000000000749 -0.5 0  -0.2200000000007767 -0.5 0  -0.2100000000008044 -0.5 0  -0.2000000000008322 -0.5 0  -0.19000000000086 -0.5 0  -0.1800000000008877 -0.5 0  -0.1700000000009154 -0.5 0  -0.1600000000009431 -0.5 0  -0.1500000000009709 -0.5 0  -0.1400000000009986 -0.5 0  -0.1300000000010264 -0.5 0  -0.1200000000010541 -0.5 0  -0.1100000000010818 -0.5 0  -0.1000000000011096 -0.5 0  -0.09000000000113734 -0.5 0  -0.08000000000116503 -0.5 0  -0.07000000000119283 -0.5 0  -0.06000000000122058 -0.5 0  -0.05000000000124827 -0.5 0  -0.04000000000127607 -0.5 0  -0.03000000000130376 -0.5 0  -0.02000000000133151 -0.5 0  -0.01000000000135925 -0.5 0  -1.376121439022882e-12 -0.5 0  0.009999999998640763 -0.5 0  0.01999999999866864 -0.5 0  0.02999999999869629 -0.5 0  0.03999999999872406 -0.5 0  0.04999999999875182 -0.5 0  0.05999999999877947 -0.5 0  0.06999999999880724 -0.5 0  0.079999999998835 -0.5 0  0.08999999999886266 -0.5 0  0.09999999999889042 -0.5 0  0.1099999999989182 -0.5 0  0.1199999999989459 -0.5 0  0.1299999999989737 -0.5 0  0.1399999999990014 -0.5 0  0.1499999999990291 -0.5 0  0.1599999999990568 -0.5 0  0.1699999999990847 -0.5 0  0.1799999999991124 -0.5 0  0.1899999999991401 -0.5 0  0.1999999999991678 -0.5 0  0.2099999999991955 -0.5 0  0.2199999999992234 -0.5 0  0.2299999999992511 -0.5 0  0.2399999999992788 -0.5 0  0.2499999999993066 -0.5 0  0.2599999999993342 -0.5 0  0.269999999999362 -0.5 0  0.2799999999993897 -0.5 0  0.2899999999994175 -0.5 0  0.2999999999994452 -0.5 0  0.3099999999994729 -0.5 0  0.3199999999995007 -0.5 0  0.3299999999995284 -0.5 0  0.3399999999995562 -0.5 0  0.3499999999995839 -0.5 0  0.3599999999996116 -0.5 0  0.3699999999996393 -0.5 0  0.379999999999667 -0.5 0  0.3899999999996949 -0.5 0  0.3999999999997226 -0.5 0  0.4099999999997503 -0.5 0  0.419999999999778 -0.5 0  0.4299999999998058 -0.5 0  0.4399999999998336 -0.5 0  0.4499999999998613 -0.5 0  0.4599999999998891 -0.5 0  0.4699999999999167 -0.5 0  0.4799999999999445 -0.5 0  0.4899999999999722 -0.5 0  0.5 -0.4902110204681464 0  0.5 -0.4804459958734807 0  0.5 -0.4707048677450883 0  0.5 -0.4609875815766065 0  0.5 -0.4512940759251849 0  0.5 -0.4416242912883993 0  0.5 -0.4319781678689807 0  0.5 -0.4223556545383647 0  0.5 -0.4127566896324213 0  0.5 -0.4031812128200121 0  0.5 -0.3936291733057916 0  0.5 -0.3841005081172659 0  0.5 -0.3745951585781932 0  0.5 -0.3651130778999337 0  0.5 -0.3556541993788045 0  0.5 -0.3462184677228392 0  0.5 -0.3368058273705318 0  0.5 -0.3274162224888609 0  0.5 -0.3180495969712945 0  0.5 -0.3087058944357755 0  0.5 -0.299385058222682 0  0.5 -0.2900870313927414 0  0.5 -0.2808117567250807 0  0.5 -0.2715591844628491 0  0.5 -0.2623292564012653 0  0.5 -0.253121909553727 0  0.5 -0.2439371050851549 0  0.5 -0.2347747685524501 0  0.5 -0.2256348634421331 0  0.5 -0.2165173209784076 0  0.5 -0.207422087829958 0  0.5 -0.1983491207029381 0  0.5 -0.1892983550950482 0  0.5 -0.1802697378305253 0  0.5 -0.1712632154965152 0  0.5 -0.1622787344187354 0  0.5 -0.1533162406595534 0  0.5 -0.1443756800160514 0  0.5 -0.1354569980180493 0  0.5 -0.1265601399261414 0  0.5 -0.1176850622761093 0  0.5 -0.1088317009011999 0  0.5 -0.09166666666668973 0  0.5 -0.08333333333337943 0  0.5 -0.07500000000006915 0  0.5 -0.06666666666675886 0  0.5 -0.05833333333344858 0  0.5 -0.05000000000013693 0  0.5 -0.04166666666678191 0  0.5 -0.03333333333342643 0  0.5 -0.02500000000006916 0  0.5 -0.01666666666671188 0  0.5 -0.00833333333335548 0  0.5 0.008333333333318314 0  0.5 0.01666666666663358 0  0.5 0.02499999999994162 0  0.5 0.03333333333325101 0  0.5 0.04166666666655769 0  0.5 0.04999999999986843 0  0.5 0.05833333333322258 0  0.5 0.06666666666657715 0  0.5 0.07499999999993352 0  0.5 0.08333333333328992 0  0.5 0.09166666666664541 0  0.5 0.1088317009011616 0  0.5 0.1176850622760307 0  0.5 0.1265601399260203 0  0.5 0.1354569980178909 0  0.5 0.1443756800158549 0  0.5 0.153316240659315 0  0.5 0.1622787344184454 0  0.5 0.1712632154961752 0  0.5 0.1802697378301332 0  0.5 0.1892983550946039 0  0.5 0.1983491207024433 0  0.5 0.2074220878294123 0  0.5 0.216517320977811 0  0.5 0.2256348634414833 0  0.5 0.2347747685517479 0  0.5 0.2439371050844009 0  0.5 0.2531219095529224 0  0.5 0.2623292564004089 0  0.5 0.2715591844619371 0  0.5 0.2808117567241139 0  0.5 0.290087031391723 0  0.5 0.2993850582216101 0  0.5 0.3087058944347426 0  0.5 0.3180495969703129 0  0.5 0.3274162224879299 0  0.5 0.3368058273696494 0  0.5 0.3462184677220051 0  0.5 0.3556541993780186 0  0.5 0.3651130778991989 0  0.5 0.3745951585775107 0  0.5 0.3841005081166359 0  0.5 0.3936291733052134 0  0.5 0.4031812128194852 0  0.5 0.412756689631945 0  0.5 0.4223556545379392 0  0.5 0.431978167868607 0  0.5 0.4416242912880781 0  0.5 0.4512940759249164 0  0.5 0.4609875815763912 0  0.5 0.4707048677449264 0  0.5 0.4804459958733726 0  0.5 0.4902110204680924 0  0.4900000000000277 0.5 0  0.4800000000000555 0.5 0  0.4700000000000832 0.5 0  0.4600000000001109 0.5 0  0.4500000000001387 0.5 0  0.4400000000001664 0.5 0  0.4300000000001942 0.5 0  0.4200000000002219 0.5 0  0.4100000000002497 0.5 0  0.4000000000002774 0.5 0  0.3900000000003052 0.5 0  0.3800000000003328 0.5 0  0.3700000000003606 0.5 0  0.3600000000003883 0.5 0  0.3500000000004161 0.5 0  0.3400000000004438 0.5 0  0.3300000000004716 0.5 0  0.3200000000004993 0.5 0  0.3100000000005271 0.5 0  0.3000000000005548 0.5 0  0.2900000000005825 0.5 0  0.2800000000006103 0.5 0  0.2700000000006381 0.5 0  0.2600000000006658 0.5 0  0.2500000000006935 0.5 0  0.2400000000007212 0.5 0  0.230000000000749 0.5 0  0.2200000000007767 0.5 0  0.2100000000008044 0.5 0  0.2000000000008322 0.5 0  0.19000000000086 0.5 0  0.1800000000008877 0.5 0  0.1700000000009154 0.5 0  0.1600000000009431 0.5 0  0.1500000000009709 0.5 0  0.1400000000009986 0.5 0  0.1300000000010264 0.5 0  0.1200000000010541 0.5 0  0.1100000000010818 0.5 0  0.1000000000011096 0.5 0  0.09000000000113734 0.5 0  0.08000000000116503 0.5 0  0.07000000000119283 0.5 0  0.06000000000122058 0.5 0  0.05000000000124827 0.5 0  0.04000000000127607 0.5 0  0.03000000000130376 0.5 0  0.02000000000133151 0.5 0  0.01000000000135925 0.5 0  1.376121439022882e-12 0.5 0  -0.009999999998640763 0.5 0  -0.01999999999866864 0.5 0  -0.02999999999869629 0.5 0  -0.03999999999872406 0.5 0  -0.04999999999875182 0.5 0  -0.05999999999877947 0.5 0  -0.06999999999880724 0.5 0  -0.079999999998835 0.5 0  -0.08999999999886266 0.5 0  -0.09999999999889042 0.5 0  -0.1099999999989182 0.5 0  -0.1199999999989459 0.5 0  -0.1299999999989737 0.5 0  -0.1399999999990014 0.5 0  -0.1499999999990291 0.5 0  -0.1599999999990568 0.5 0  -0.1699999999990847 0.5 0  -0.1799999999991124 0.5 0  -0.1899999999991401 0.5 0  -0.1999999999991678 0.5 0  -0.2099999999991955 0.5 0  -0.2199999999992234 0.5 0  -0.2299999999992511 0.5 0  -0.2399999999992788 0.5 0  -0.2499999999993066 0.5 0  -0.2599999999993342 0.5 0  -0.269999999999362 0.5 0  -0.2799999999993897 0.5 0  -0.2899999999994175 0.5 0  -0.2999999999994452 0.5 0  -0.3099999999994729 0.5 0  -0.3199999999995007 0.5 0  -0.3299999999995284 0.5 0  -0.3399999999995562 0.5 0  -0.3499999999995839 0.5 0  -0.3599999999996116 0.5 0  -0.3699999999996393 0.5 0  -0.379999999999667 0.5 0  -0.3899999999996949 0.5 0  -0.3999999999997226 0.5 0  -0.4099999999997503 0.5 0  -0.419999999999778 0.5 0  -0.4299999999998058 0.5 0  -0.4399999999998336 0.5 0  -0.4499999999998613 0.5 0  -0.4599999999998891 0.5 0  -0.4699999999999167 0.5 0  -0.4799999999999445 0.5 0  -0.4899999999999722 0.5 0  -0.5 0.4902110204681464 0  -0.5 0.4804459958734807 0  -0.5 0.4707048677450883 0  -0.5 0.4609875815766065 0  -0.5 0.4512940759251849 0  -0.5 0.4416242912883993 0  -0.5 0.4319781678689807 0  -0.5 0.4223556545383647 0  -0.5 0.4127566896324213 0  -0.5 0.4031812128200121 0  -0.5 0.3936291733057916 0  -0.5 0.3841005081172659 0  -0.5 0.3745951585781932 0  -0.5 0.3651130778999337 0  -0.5 0.3556541993788045 0  -0.5 0.3462184677228392 0  -0.5 0.3368058273705318 0  -0.5 0.3274162224888609 0  -0.5 0.3180495969712945 0  -0.5 0.3087058944357755 0  -0.5 0.299385058222682 0  -0.5 0.2900870313927414 0  -0.5 0.2808117567250807 0  -0.5 0.2715591844628491 0  -0.5 0.2623292564012653 0  -0.5 0.253121909553727 0  -0.5 0.2439371050851549 0  -0.5 0.2347747685524501 0  -0.5 0.2256348634421331 0  -0.5 0.2165173209784076 0  -0.5 0.207422087829958 0  -0.5 0.1983491207029381 0  -0.5 0.1892983550950482 0  -0.5 0.1802697378305253 0  -0.5 0.1712632154965152 0  -0.5 0.1622787344187354 0  -0.5 0.1533162406595534 0  -0.5 0.1443756800160514 0  -0.5 0.1354569980180493 0  -0.5 0.1265601399261414 0  -0.5 0.1176850622761093 0  -0.5 0.1088317009011999 0  -0.5 0.09167500000001694 0  -0.5 0.08335000000003931 0  -0.5 0.07502500000006167 0  -0.5 0.06670000000008947 0  -0.5 0.05837500000011001 0  -0.5 0.0500500000001328 0  -0.5 0.0417250000001127 0  -0.5 0.03340000000008944 0  -0.5 0.02507500000006573 0  -0.5 0.01675000000004653 0  -0.5 0.008425000000027341 
[...]
<PointData  Scalars="f_25"> 
<DataArray  type="Float64"  Name="f_25"  format="ascii">1.0000000000000000e+00  1.2303387914073098e-04  1.4349963979874625e-01  2.3792157460616317e-02  5.1148814957487639e-02  9.6367389283855262e-04  1.0000000000000000e+00  1.0000000000000000e+00  2.7105768924399806e-02  2.5278467424904322e-02  1.2067703400512775e-03  1.2033034500366711e-03  1.2783911551834999e-04  1.5199773971325795e-04  1.8896414872306524e-04  2.3088002899691472e-04  2.7208437630334831e-04  3.1241681953241446e-04  3.5142521863070533e-04  3.9173877929132432e-04  4.3062239481018164e-04  4.7065193590180678e-04  5.1226790571758281e-04  5.5873735422038329e-04  6.0767246951122728e-04  6.6038174582110695e-04  7.1834443798386933e-04  7.8289924995612848e-04  8.5765362343488585e-04  9.3789455812917232e-04  1.0273393375690705e-03  1.1278767826061503e-03  1.2347093185010225e-03  1.3519510584407649e-03  1.4837355649978594e-03  1.6214684212091750e-03  1.7732156647380678e-03  1.9372265965590374e-03  2.1138517307985874e-03  2.3083478676143676e-03  2.5103983369120352e-03  2.7330197577933820e-03  2.9669292241692987e-03  3.2168280085222620e-03  3.4818489779206547e-03  3.7656534316340587e-03  4.0650890953340089e-03  4.3789475514423200e-03  4.7100426588417297e-03  5.0593440344974617e-03  5.4245871782531881e-03  5.8029572754624628e-03  6.2004200181420112e-03  6.6151814706682192e-03  7.0397112764537528e-03  7.4839903486124534e-03  7.9392464184786342e-03  8.4147896275010171e-03  8.8973477700354346e-03  9.3922074708839998e-03  9.9033300886658543e-03  1.0422026915417248e-02  1.0952528116700973e-02  1.1491712294258249e-02  1.2044523352441923e-02  1.2607848646380811e-02  1.3166635395275145e-02  1.3733361414090000e-02  1.4310761728356269e-02  1.4896042117868498e-02  1.5483578550432460e-02  1.6070299836136535e-02  1.6673216101663918e-02  1.7285484267369321e-02  1.7883878658701571e-02  1.8494840887555781e-02  1.9116377583538235e-02  1.9726325014580638e-02  2.0358972601060829e-02  2.0983458884918985e-02  2.1616983772845270e-02  2.2266122781907042e-02  2.2925976279648465e-02  2.3597415818927631e-02  2.4282782202294018e-02  2.4969665158281529e-02  2.5682730521059967e-02  2.6425502175231846e-02  2.7182414807926516e-02  2.7979806958275052e-02  2.8827678326905658e-02  2.9707954316891157e-02  3.0660201777055054e-02  3.1660331330232314e-02  3.2734306742604781e-02  3.3909428107463224e-02  3.5211347369220596e-02  3.6638045230966358e-02  3.8238679314138914e-02  4.0086399196798704e-02  4.2173844815606605e-02  4.4634078801483242e-02  4.7534086788945551e-02  5.1115585947478254e-02  5.5416311391491731e-02  6.0919869720817851e-02  6.8078705703813344e-02  7.7474767709117626e-02  8.9829167039888635e-02  1.0584718714174475e-01  1.2626951621478044e-01  1.3160746988517846e-01  1.1048806886546136e-01  9.3564368987318708e-02  8.0394283920737303e-02  7.0939371644004476e-02  6.3992060681002841e-02  5.8853036444887756e-02  5.4918846590088007e-02  5.1823995779144469e-02  4.9359495294868425e-02  4.7305081975068053e-02  4.5609617562942781e-02  4.4153443386957321e-02  4.2925316099550845e-02  4.1818137371244388e-02  4.0816673569415401e-02  3.9941011797362327e-02  3.9114585527854399e-02  3.8327091921376358e-02  3.7606030839904096e-02  3.6880340180970000e-02  3.6219168913252664e-02  3.5553973075245923e-02  3.4904332855248570e-02  3.4273745746408166e-02  3.3664452591715792e-02  3.3076436213881170e-02  3.2481909939457501e-02  3.1914756820278611e-02  3.1328233084742328e-02  3.0759973557526910e-02  3.0204226228965434e-02  2.9667100531466505e-02  2.9152279398320661e-02  2.8634627303735768e-02  2.8148727472256024e-02  2.7670535347496153e-02  2.7213873131614750e-02  2.6778261723189867e-02  2.6348319767469510e-02  2.5984199096093254e-02  2.5627800931341250e-02  2.5000500553043519e-02  2.4740314049978399e-02  2.4505152235104282e-02  2.4311959320737191e-02  2.4131274801100749e-02  2.3981415013548495e-02  2.3878430739429638e-02  2.3796244879876249e-02  2.3726509897754929e-02  2.3734541525298858e-02  2.3757840082436005e-02  2.3899289503066443e-02  2.4016962929774486e-02  2.4168873531662617e-02  2.4369057541545402e-02  2.4591050370562351e-02  2.4855140204299814e-02  2.5158548263931619e-02  2.5486720172990762e-02  2.5828994198234576e-02  2.6236191950057011e-02  2.6659767953616614e-02  2.7635601833728551e-02  2.8179511148694745e-02  2.8739320675399554e-02  2.9359703638770968e-02  2.9997978854543320e-02  3.0657420088084836e-02  3.1345303073368344e-02  3.2046646487280520e-02  3.2775091094453576e-02  3.3504845135922799e-02  3.4259892111316859e-02  3.5028210374987268e-02  3.5812724046144141e-02  3.6604624123952795e-02  3.7387366587619757e-02  3.8160344803719985e-02  3.8927816083814022e-02  3.9700206373412782e-02  4.0474762481784964e-02  4.1243861556594999e-02  4.1993899704489634e-02  4.2723547681349346e-02  4.3431826475257417e-02  4.4128685151168245e-02  4.4787625094146410e-02  4.5426855031060823e-02  4.6051539059584014e-02  4.6622322615475463e-02  4.7178294969647414e-02  4.7704202335824807e-02  4.8205587144994053e-02  4.8662158722973595e-02  4.9083410462512744e-02  4.9468289488649266e-02  4.9814863571560244e-02  5.0126449551030489e-02  5.0391184390954198e-02  5.0627418087648139e-02  5.0815210067379012e-02  5.0982703487413267e-02  5.1058154465809164e-02  5.1129027436078882e-02  5.0846860079111260e-02  5.0240248114740316e-02  4.9506196305864343e-02  4.8740015158347638e-02  4.7983810102448399e-02  4.7266756342957066e-02  4.6604467235310865e-02  4.5993898903799214e-02  4.5420329253043380e-02  4.4886272240508562e-02  4.4391760732585911e-02  4.3932730723541175e-02  4.3490819059561731e-02  4.3074921496623897e-02  4.2672245031052533e-02  4.2275940970469800e-02  4.1889240898815877e-02  4.1505572189775956e-02  4.1117927549302206e-02  4.0715463242418586e-02  4.0308359666678652e-02  3.9880374504788083e-02  3.9436020590359562e-02  3.8961239479836499e-02  3.8464305171698458e-02  3.7942322920255345e-02  3.7381761619174274e-02  3.6791639781052175e-02  3.6151935572511104e-02  3.5487004937281429e-02  3.4780097342029477e-02  3.4036148800802024e-02  3.3246974775653512e-02  3.2419185593751260e-02  3.1555289394118897e-02  3.0655236770746400e-02  2.9721590379630444e-02  2.8756745624374368e-02  2.7758543714295616e-02  2.6716565453350660e-02  2.5664951680096956e-02  2.4592933941645818e-02  2.3508302651860543e-02  2.2416459640034046e-02  2.1305101795152822e-02  2.0206727332226435e-02  1.9090166237068461e-02  1.7983643100468131e-02  1.6896963252057945e-02  1.5831276372068707e-02  1.4788460484252234e-02  1.3752465013839307e-02  1.2766402980418749e-02  1.1800604863350241e-02  1.0866424828088271e-02  9.9822712275970914e-03  9.1257866973561939e-03  8.3135170538598362e-03  7.5474064440663562e-03  6.8204433395531866e-03  6.1454028098023965e-03  5.5070274162358464e-03  4.9174130924213525e-03  4.3692315836187483e-03  3.8644043010136594e-03  3.3988652595696228e-03  2.9689777722278882e-03  2.5845844093686380e-03  2.2299620496337162e-03  1.9124946682282688e-03  1.6259460330005008e-03  1.3715652135110460e-03  1.1430623436645220e-03  9.4374255882516715e-04  7.6623163609922324e-04  6.1256997352192191e-04  4.8201843228848763e-04  3.6900623868159560e-04  2.7551834634526262e-04  1.9812826461887005e-04  1.3690944417189227e-04  9.1027925071863195e-05  5.9105980664820641e-05  4.1007634871206173e-05  3.5355475136561825e-05  4.1278018574816571e-05  5.7989708872944200e-05  8.4359501346315614e-05  1.1980975420031788e-04  1.6328844711583398e-04  2.1595289728689932e-04  2.7747653694194845e-04  3.4932605755191382e-04  4.2976929607818485e-04  5.2172368624753425e-04  6.2133114911732475e-04  7.2913078786732946e-04  8.3391923905536385e-04  9.2029512264898961e-04  9.6380761184199776e-04  9.6072810944206933e-04  9.5899951644040529e-04  9.4834705604544204e-04  9.4019315508078662e-04  9.2965939238890923e-04  9.1627129300070949e-04  9.0257434715450985e-04  8.8495219901776792e-04  8.6761102272720284e-04  8.4829006213106009e-04  8.2725679181374560e-04  8.0390286864432552e-04  7.7893613664328353e-04  7.5278556065833330e-04  7.2522432568316426e-04  6.9643146245213492e-04  6.6581116961584631e-04  6.3383478431916593e-04  6.0136683955351361e-04  5.6834975015140421e-04  5.3378319621431923e-04  4.9917415746449740e-04  4.6443918373868060e-04  4.2921177930371995e-04  3.9467452797198956e-04  3.6194373376031237e-04  3.2878366642824226e-04  2.9635417927585905e-04  2.6515922157857856e-04  2.3481454052218936e-04  2.0726534099143259e-04  1.8215885983732775e-04  1.5925857551318611e-04  1.4049566025102283e-04  1.2847290009372842e-04  1.2449399984537423e-04  1.3458711064168912e-04  1.6866092066714276e-04  2.4346812450872806e-04  3.9738894452746675e-04  6.8383177347512616e-04  2.1127550504576420e-03  3.6964500928021431e-03  6.4949264255419938e-03  1.1263272742030104e-02  1.9741911972407759e-02  3.4724223472142275e-02  6.0784348604285041e-02  1.0622320392750433e-01  1.8493103240605521e-01  3.2702576608097067e-01  5.7160171107645530e-01  1.0000000000000000e+00  1.0000000000000000e+00  1.0000000000000000e+00  1.0000000000000000e+00  1.0000000000000000e+00  1.0000000000000000e+00  1.0000000000000000e+00  1.0000000000000000e+00  1.0000000000000000e+00  1.0000000000000000e+00  1.0000000000000000e+00  1.0000000000000000e+00  1.0000000000000000e+00  1.0000000000000000e+00  1.0000000000000000e+00  1.0000000000000000e+00  1.0000000000000000e+00  1.0000000000000000e+00  1.0000000000000000e+00  1.0000000000000000e+00  1.0000000000000000e+00  1.0000000000000000e+00  1.0000000000000000e+00  1.0000000000000000e+00  1.0000000000000000e+00  1.0000000000000000e+00  1.0000000000000000e+00  1.0000000000000000e+00  1.0000000000000000e+00  1.0000000000000000e+00  1.0000000000000000e+00  1.0000000000000000e+00  1.0000000000000000e+00  1.0000000000000000e+00  1.0000000000000000e+00  1.0000000000000000e+00  1.0000000000000000e+00  1.0000000000000000e+00  1.0000000000000000e+00  1.0000000000000000e+00  1.0000000000000000e+00  1.0000000000000000e+00  1.0000000000000000e+00  1.0000000000000000e+00  1.0000000000000000e+00  1.0000000000000000e+00  1.0000000000000000e+00  1.0000000000000000e+00  1.0000000000000000e+00  1.0000000000000000e+00  1.0000000000000000e+00  1.0000000000000000e+00  1.0000000000000000e+00  1.0000000000000000e+00  1.0000000000000000e+00  1.0000000000000000e+00  1.0000000000000000e+00  1.0000000000000000e+00  1.0000000000000000e+00  1.0000000000000000e+00  1.0000000000000000e+00  1.0000000000000000e+00  1.0000000000000000e+00  1.0000000000000000e+00  1.0000000000000000e+00  1.0000000000000000e+00  1.0000000000000000e+00  1.0000000000000000e+00  1.0000000000000000e+00  1.0000000000000000e+00  1.0000000000000000e+00  1.0000000000000000e+00  1.0000000000000000e+00  1.0000000000000000e+00  9.9999999999999989e-01  1.0000000000000000e+00  1.0000000000000000e+00  1.0000000000000000e+00  1.0000000000000000e+00  1.0000000000000000e+00  1.0000000000000000e+00  1.0000000000000000e+00  1.0000000000000000e+00  1.0000000000000000e+00  1.0000000000000000e+00  1.0000000000000000e+00  1.0000000000000000e+00  1.0000000000000000e+00  1.0000000000000000e+00  1.0000000000000000e+00  1.0000000000000000e+00  1.0000000000000000e+00  1.0000000000000000e+00  1.0000000000000000e+00  1.0000000000000000e+00  1.0000000000000000e+00  1.0000000000000000e+00  1.0000000000000000e+00  1.0000000000000000e+00  1.0000000000000000e+00  1.0000000000000000e+00  1.0000000000000000e+00  1.0000000000000000e+00  1.0000000000000000e+00  1.0000000000000000e+00  1.0000000000000000e+00  1.0000000000000000e+00  1.0000000000000000e+00  1.0000000000000000e+00  1.0000000000000000e+00  5.7157115184708485e-01  3.2704096057036619e-01  1.8489432279238444e-01  1.0624108964557338e-01  6.0791953649313876e-02  3.4730118681450393e-02  1.9750111850803453e-02  1.1266100481728322e-02  6.5000635818749618e-03  3.7002309727731317e-03  2.1163343660257129e-03  6.8775301324427074e-04  4.0178520620449059e-04  2.4806005166440830e-04  1.7421109969721280e-04  1.4054810651423948e-04  1.3052054747587392e-04  1.3416874809514024e-04  1.4548215075980546e-04  1.6264987200216018e-04  1.8328241218485981e-04  2.0544863722221196e-04  2.2843172549015045e-04  2.5307160665413036e-04  2.7718459588521761e-04  3.0070826855522771e-04  3.2361931702453697e-04  3.4386433601999800e-04  3.6371016771405407e-04  3.8154657216597733e-04  3.9673429232429843e-04  4.0954562327195779e-04  4.1933347504473026e-04  4.2544237203293419e-04  4.2770695850650770e-04  4.2654324567930918e-04  4.2184850053387016e-04  4.1337176695364295e-04  4.0047165289234881e-04  3.8380493110069509e-04  3.6450165520790989e-04  3.4149594457319525e-04  3.1577903229579063e-04  2.8782342260787625e-04  2.5784147981942559e-04  2.2768811465398843e-04  1.9947931754503849e-04  1.7164048590604240e-04  1.4593276939697781e-04  1.2563662386505241e-04  1.1095377618629691e-04  1.1155239534401117e-04  1.1716339954345646e-04  1.2026973203057179e-03  1.2114985969449927e-03  1.2195498940885119e-03  1.2255233197675827e-03  1.2316648556247544e-03  1.2593589678186090e-03  1.2704439115844353e-03  1.2693681761400883e-03  1.2983460464928635e-03  1.3283293502242314e-03  1.3237114208788485e-03  1.3558426987442572e-03  1.3843853409066013e-03  1.4012342765052474e-03  1.4173033913837635e-03  1.4246842173331520e-03  1.4389426486760351e-03  1.4430018077510208e-03  1.4750656716319621e-03  1.4904022695507867e-03  1.4896608408025158e-03  1.4973466535320857e-03  1.5172685190231469e-03  1.5204815629479009e-03  1.5092572421415479e-03  1.5099316504849569e-03  1.5063965052155980e-03  1.4932588536493028e-03  1.4956234251690685e-03  1.4771055455432955e-03  1.4559839553384437e-03  1.4466200555353415e-03  1.4337619349521458e-03  1.4104770791639899e-03  1.4137972170790737e-03  1.4321161039179083e-03  1.4157295185416247e-03  1.4630703322353899e-03  1.5209492950065688e-03  1.5983696070705276e-03  1.7700545244107334e-03  1.9822084500270604e-03  2.2774506831252689e-03  2.7233741466113365e-03  3.3131571954684463e-03  4.1282334467833822e-03  5.2354362763317236e-03  6.6705406425735195e-03  8.5064155048889829e-03  1.0855096618006184e-02  1.3789808078836381e-02  1.7381989000950417e-02  2.1696860989491185e-02  2.6543093323109307e-02  3.1931613788146594e-02  3.7740087847279009e-02  4.3598753536127466e-02  4.9211376486058084e-02  5.4382389961957434e-02  5.8712016437901735e-02  6.2057826664470156e-02  6.4360648894691050e-02  6.5639418499766095e-02  6.6009129810641901e-02  6.5594940221568962e-02  6.4589423852119590e-02  6.3180227174754328e-02  6.1474779423332335e-02  5.9619918106166903e-02  5.7667553972031077e-02  5.5784847160954748e-02  5.3939587645357757e-02  5.2183857034990094e-02  5.0545036383834729e-02  4.9034255286449120e-02  4.7638336159596624e-02  4.6356414839075072e-02  4.5207203027737224e-02  4.4162939811850412e-02  4.3220313698429991e-02  4.2357864928821105e-02  4.1570123312349473e-02  4.0857531918928672e-02  4.0206673532189985e-02  3.9598823339492342e-02  3.9049453369868002e-02  3.8537875845110411e-02  3.8066710987556235e-02  3.7620510536488405e-02  3.7189548087472969e-02  3.6786069308812973e-02  3.6397314328621005e-02  3.6008804018830193e-02  3.5623971976331027e-02  3.5236048428927247e-02  3.4851303224488352e-02  3.4460000405777264e-02  3.4054286231024050e-02  3.3634927609398263e-02  3.3196738366991309e-02  3.2740462089413169e-02  3.2262770775348011e-02  3.1764538954515593e-02  3.1238594237312390e-02  3.0684429100705544e-02  3.0109923802643816e-02  2.9509739644388439e-02  2.8901854363791037e-02  2.8299556004453053e-02  2.7743950342215645e-02  2.7307668888674336e-02  1.2061969443417375e-03  1.2146294967181814e-03  1.2226490759001023e-03  1.2284518634717750e-03  1.2343704982155769e-03  1.2620304803074144e-03  1.2719723056101966e-03  1.2700863973547649e-03  1.2971266820513330e-03  1.3249385070040198e-03  1.3204993528996439e-03  1.3478416559963885e-03  1.3738257591169186e-03  1.3878011615178637e-03  1.4009672250219134e-03  1.4061260914952551e-03  1.4164408438144536e-03  1.4156284495928325e-03  1.4465457192013361e-03  1.4636296696169504e-03  1.4613355077426318e-03  1.4685066432342775e-03  1.4845337486303737e-03  1.4867253477383992e-03  1.4736691478448882e-03  1.4735631229416464e-03  1.4703756475239972e-03  1.4573611555474197e-03  1.4593211517829855e-03  1.4418071829489728e-03  1.4208234750391025e-03  1.4108707665138251e-03  1.3971226178277245e-03  1.3739603572787546e-03  1.3769013715986878e-03  1.3947754165616741e-03  1.3752855585986144e-03  1.4184528872335392e-03  1.4689120307081885e-03  1.5371602801585438e-03  1.6972028066093137e-03  1.8909985110648246e-03  2.1640421023668100e-03  2.5811787685146043e-03  3.1307982819807926e-03  3.8939127802325143e-03  4.9331574776396271e-03  6.2819122609998309e-03  8.0079281733745084e-03  1.0217933331303409e-02  1.2977884713489488e-02  1.6351261861091679e-02  2.0391198359088227e-02  2.4930174110195134e-02  2.9974597031902524e-02  3.5418681522949691e-02  4.0945895328288483e-02  4.6306452531809469e-02  5.1308767354747271e-02  5.5611760311372500e-02  5.9082347718425625e-02  6.1633139327489213e-02  6.3285416497804864e-02  6.4102086339806352e-02  6.4153758719580498e-02  6.3620452850172510e-02  6.2650952532740306e-02  6.1341247947194609e-02  5.9825674250907811e-02  5.8151826314827862e-02  5.6501295248360527e-02  5.4840491211092315e-02  5.3216133375446034e-02  5.1680408520827371e-02  5.0241517592857658e-02  4.8891923340295011e-02  4.7634507852482355e-02  4.6491593118895620e-02  4.5439207570732928e-02  4.4480521902134307e-02  4.3591958881356814e-02  4.2768071607364060e-02  4.2014991056245947e-02  4.1315780956310034e-02  4.0656784677360280e-02  4.0048822986288729e-02  3.9474283481777922e-02  3.8937308930354651e-02  3.8420393548556871e-02  3.7912370371246312e-02  3.7427583576027032e-02  3.6952328526886201e-02  3.6471485339274502e-02  3.5990402902932192e-02  3.5499240990954584e-02  3.5006810812967096e-02  3.4503306769508149e-02  3.3978491207597508e-02  3.3435641951046507e-02  3.2867761824190114e-02  3.2276940699186352e-02  3.1662092039838059e-02  3.1022391817790287e-02  3.0353667199028402e-02  2.9655575512096934e-02  2.8935748101694758e-02  2.8193267325374513e-02  2.7445071165181745e-02  2.6709969711972519e-02  2.6040708656397356e-02  2.5516118427688129e-02  8.2288379205765316e-01  6.3559144849376314e-01  4.5835557232334723e-01  3.3505927009906900e-01  2.4861098053057493e-01  1.8741023806962434e-01  1.4526838077610219e-01  1.1687949195496952e-01  9.6504305336761464e-02  8.2225800041524633e-02  7.1756375303252892e-02  6.3893681810278186e-02  5.8000162558244063e-02  5.3468469519405704e-02  4.9922328292453598e-02  4.7099550692758375e-02  4.4853625961482950e-02  4.3022357743982442e-02  4.1512589838219892e-02  4.0280100515107178e-02  3.9248924397334593e-02  3.8373460598775784e-02  3.7646098584521268e-02  3.7021461318403941e-02  3.6488541296736982e-02  3.6035570168186856e-02  3.5622835386101573e-02  3.5275439652124090e-02  3.4955934204099863e-02  3.4663389557691437e-02  3.4402591774848015e-02  3.4162511512892076e-02  3.3925479364059707e-02  3.3687086108907756e-02  3.3448843649120603e-02  3.3200476548088581e-02  3.2953284875453868e-02  3.2687729938052835e-02  3.2405690484897921e-02  3.2106341344888316e-02  3.1783940980393957e-02  3.1436535148789406e-02  3.1056347575081876e-02  3.0646640921794886e-02  3.0194726967948331e-02  2.9708062716845101e-02  2.9185006747081296e-02  2.8614530983177698e-02  2.8007041423531359e-02  2.7352146273409688e-02  2.6662009569827533e-02  2.5950496564811614e-02  2.5234997639830399e-02  2.4574312721116695e-02  2.4033502260031703e-02  7.5755388561624566e-03  1.8358685643160967e-04  3.4352996982468423e-02  4.2459640337984710e-02  2.4442396980285774e-02  8.2612613911786398e-04  2.8158601157472817e-04  4.5000499824154223e-02  3.8331050597911032e-02  1.8453189980885291e-02  1.9740367046337131e-03  1.2356716540361262e-04  3.8721906394792678e-02  4.3378657575164098e-02  6.7359901989761696e-03  2.0299706735185864e-04  4.4837677020098887e-02  2.9548517283506593e-02  2.7252194580495656e-04  7.6427063687225811e-03  4.1776406153253023e