<?xml version="1.0"?>
<VTKFile type="UnstructuredGrid"  version="0.1"  >
<UnstructuredGrid>
<Piece  NumberOfPoints="15540" NumberOfCells="30546">
<Points>
<DataArray  type="Float64"  NumberOfComponents="3"  format="ascii">0 0 0  -0.5 -0.5 0  0.5 -0.5 0  0.5 0 0  0.5 0.5 0  -0.5 0.5 0  -0.5 0.0001 0  -0.5 -0.0001 0  0.5 0.1 0  0.5 -0.1 0  -0.5 -0.1 0  -0.5 0.1 0  -0.4900000000000277 -0.5 0  -0.4800000000000555 -0.5 0  -0.4700000000000832 -0.5 0  -0.4600000000001109 -0.5 0  -0.4500000000001387 -0.5 0  -0.4400000000001664 -0.5 0  -0.4300000000001942 -0.5 0  -0.4200000000002219 -0.5 0  -0.4100000000002497 -0.5 0  -0.4000000000002774 -0.5 0  -0.3900000000003052 -0.5 0  -0.3800000000003328 -0.5 0  -0.3700000000003606 -0.5 0  -0.3600000000003883 -0.5 0  -0.3500000000004161 -0.5 0  -0.3400000000004438 -0.5 0  -0.3300000000004716 -0.5 0  -0.3200000000004993 -0.5 0  -0.3100000000005271 -0.5 0  -0.3000000000005548 -0.5 0  -0.2900000000005825 -0.5 0  -0.2800000000006103 -0.5 0  -0.2700000000006381 -0.5 0  -0.2600000000006658 -0.5 0  -0.2500000000006935 -0.5 0  -0.2400000000007212 -0.5 0  -0.230000000000749 -0.5 0  -0.2200000000007767 -0.5 0  -0.2100000000008044 -0.5 0  -0.2000000000008322 -0.5 0  -0.19000000000086 -0.5 0  -0.1800000000008877 -0.5 0  -0.1700000000009154 -0.5 0  -0.1600000000009431 -0.5 0  -0.1500000000009709 -0.5 0  -0.1400000000009986 -0.5 0  -0.1300000000010264 -0.5 0  -0.1200000000010541 -0.5 0  -0.1100000000010818 -0.5 0  -0.1000000000011096 -0.5 0  -0.09000000000113734 -0.5 0  -0.08000000000116503 -0.5 0  -0.07000000000119283 -0.5 0  -0.06000000000122058 -0.5 0  -0.05000000000124827 -0.5 0  -0.04000000000127607 -0.5 0  -0.03000000000130376 -0.5 0  -0.02000000000133151 -0.5 0  -0.01000000000135925 -0.5 0  -1.376121439022882e-12 -0.5 0  0.009999999998640763 -0.5 0  0.01999999999866864 -0.5 0  0.02999999999869629 -0.5 0  0.03999999999872406 -0.5 0  0.04999999999875182 -0.5 0  0.05999999999877947 -0.5 0  0.06999999999880724 -0.5 0  0.079999999998835 -0.5 0  0.08999999999886266 -0.5 0  0.09999999999889042 -0.5 0  0.1099999999989182 -0.5 0  0.1199999999989459 -0.5 0  0.1299999999989737 -0.5 0  0.1399999999990014 -0.5 0  0.1499999999990291 -0.5 0  0.1599999999990568 -0.5 0  0.1699999999990847 -0.5 0  0.1799999999991124 -0.5 0  0.1899999999991401 -0.5 0  0.1999999999991678 -0.5 0  0.2099999999991955 -0.5 0  0.2199999999992234 -0.5 0  0.2299999999992511 -0.5 0  0.2399999999992788 -0.5 0  0.2499999999993066 -0.5 0  0.2599999999993342 -0.5 0  0.269999999999362 -0.5 0  0.2799999999993897 -0.5 0  0.2899999999994175 -0.5 0  0.2999999999994452 -0.5 0  0.3099999999994729 -0.5 0  0.3199999999995007 -0.5 0  0.3299999999995284 -0.5 0  0.3399999999995562 -0.5 0  0.3499999999995839 -0.5 0  0.3599999999996116 -0.5 0  0.3699999999996393 -0.5 0  0.379999999999667 -0.5 0  0.3899999999996949 -0.5 0  0.3999999999997226 -0.5 0  0.4099999999997503 -0.5 0  0.419999999999778 -0.5 0  0.4299999999998058 -0.5 0  0.4399999999998336 -0.5 0  0.4499999999998613 -0.5 0  0.4599999999998891 -0.5 0  0.4699999999999167 -0.5 0  0.4799999999999445 -0.5 0  0.4899999999999722 -0.5 0  0.5 -0.4902110204681464 0  0.5 -0.4804459958734807 0  0.5 -0.4707048677450883 0  0.5 -0.4609875815766065 0  0.5 -0.4512940759251849 0  0.5 -0.4416242912883993 0  0.5 -0.4319781678689807 0  0.5 -0.4223556545383647 0  0.5 -0.4127566896324213 0  0.5 -0.4031812128200121 0  0.5 -0.3936291733057916 0  0.5 -0.3841005081172659 0  0.5 -0.3745951585781932 0  0.5 -0.3651130778999337 0  0.5 -0.3556541993788045 0  0.5 -0.3462184677228392 0  0.5 -0.3368058273705318 0  0.5 -0.3274162224888609 0  0.5 -0.3180495969712945 0  0.5 -0.3087058944357755 0  0.5 -0.299385058222682 0  0.5 -0.2900870313927414 0  0.5 -0.2808117567250807 0  0.5 -0.2715591844628491 0  0.5 -0.2623292564012653 0  0.5 -0.253121909553727 0  0.5 -0.2439371050851549 0  0.5 -0.2347747685524501 0  0.5 -0.2256348634421331 0  0.5 -0.2165173209784076 0  0.5 -0.207422087829958 0  0.5 -0.1983491207029381 0  0.5 -0.1892983550950482 0  0.5 -0.1802697378305253 0  0.5 -0.1712632154965152 0  0.5 -0.1622787344187354 0  0.5 -0.1533162406595534 0  0.5 -0.1443756800160514 0  0.5 -0.1354569980180493 0  0.5 -0.1265601399261414 0  0.5 -0.1176850622761093 0  0.5 -0.1088317009011999 0  0.5 -0.09166666666668973 0  0.5 -0.08333333333337943 0  0.5 -0.07500000000006915 0  0.5 -0.06666666666675886 0  0.5 -0.05833333333344858 0  0.5 -0.05000000000013693 0  0.5 -0.04166666666678191 0  0.5 -0.03333333333342643 0  0.5 -0.02500000000006916 0  0.5 -0.01666666666671188 0  0.5 -0.00833333333335548 0  0.5 0.008333333333318314 0  0.5 0.01666666666663358 0  0.5 0.02499999999994162 0  0.5 0.03333333333325101 0  0.5 0.04166666666655769 0  0.5 0.04999999999986843 0  0.5 0.05833333333322258 0  0.5 0.06666666666657715 0  0.5 0.07499999999993352 0  0.5 0.08333333333328992 0  0.5 0.09166666666664541 0  0.5 0.1088317009011616 0  0.5 0.1176850622760307 0  0.5 0.1265601399260203 0  0.5 0.1354569980178909 0  0.5 0.1443756800158549 0  0.5 0.153316240659315 0  0.5 0.1622787344184454 0  0.5 0.1712632154961752 0  0.5 0.1802697378301332 0  0.5 0.1892983550946039 0  0.5 0.1983491207024433 0  0.5 0.2074220878294123 0  0.5 0.216517320977811 0  0.5 0.2256348634414833 0  0.5 0.2347747685517479 0  0.5 0.2439371050844009 0  0.5 0.2531219095529224 0  0.5 0.2623292564004089 0  0.5 0.2715591844619371 0  0.5 0.2808117567241139 0  0.5 0.290087031391723 0  0.5 0.2993850582216101 0  0.5 0.3087058944347426 0  0.5 0.3180495969703129 0  0.5 0.3274162224879299 0  0.5 0.3368058273696494 0  0.5 0.3462184677220051 0  0.5 0.3556541993780186 0  0.5 0.3651130778991989 0  0.5 0.3745951585775107 0  0.5 0.3841005081166359 0  0.5 0.3936291733052134 0  0.5 0.4031812128194852 0  0.5 0.412756689631945 0  0.5 0.4223556545379392 0  0.5 0.431978167868607 0  0.5 0.4416242912880781 0  0.5 0.4512940759249164 0  0.5 0.4609875815763912 0  0.5 0.4707048677449264 0  0.5 0.4804459958733726 0  0.5 0.4902110204680924 0  0.4900000000000277 0.5 0  0.4800000000000555 0.5 0  0.4700000000000832 0.5 0  0.4600000000001109 0.5 0  0.4500000000001387 0.5 0  0.4400000000001664 0.5 0  0.4300000000001942 0.5 0  0.4200000000002219 0.5 0  0.4100000000002497 0.5 0  0.4000000000002774 0.5 0  0.3900000000003052 0.5 0  0.3800000000003328 0.5 0  0.3700000000003606 0.5 0  0.3600000000003883 0.5 0  0.3500000000004161 0.5 0  0.3400000000004438 0.5 0  0.3300000000004716 0.5 0  0.3200000000004993 0.5 0  0.3100000000005271 0.5 0  0.3000000000005548 0.5 0  0.2900000000005825 0.5 0  0.2800000000006103 0.5 0  0.2700000000006381 0.5 0  0.2600000000006658 0.5 0  0.2500000000006935 0.5 0  0.2400000000007212 0.5 0  0.230000000000749 0.5 0  0.2200000000007767 0.5 0  0.2100000000008044 0.5 0  0.2000000000008322 0.5 0  0.19000000000086 0.5 0  0.1800000000008877 0.5 0  0.1700000000009154 0.5 0  0.1600000000009431 0.5 0  0.1500000000009709 0.5 0  0.1400000000009986 0.5 0  0.1300000000010264 0.5 0  0.1200000000010541 0.5 0  0.1100000000010818 0.5 0  0.1000000000011096 0.5 0  0.09000000000113734 0.5 0  0.08000000000116503 0.5 0  0.07000000000119283 0.5 0  0.06000000000122058 0.5 0  0.05000000000124827 0.5 0  0.04000000000127607 0.5 0  0.03000000000130376 0.5 0  0.02000000000133151 0.5 0  0.01000000000135925 0.5 0  1.376121439022882e-12 0.5 0  -0.009999999998640763 0.5 0  -0.01999999999866864 0.5 0  -0.02999999999869629 0.5 0  -0.03999999999872406 0.5 0  -0.04999999999875182 0.5 0  -0.05999999999877947 0.5 0  -0.06999999999880724 0.5 0  -0.079999999998835 0.5 0  -0.08999999999886266 0.5 0  -0.09999999999889042 0.5 0  -0.1099999999989182 0.5 0  -0.1199999999989459 0.5 0  -0.1299999999989737 0.5 0  -0.1399999999990014 0.5 0  -0.1499999999990291 0.5 0  -0.1599999999990568 0.5 0  -0.1699999999990847 0.5 0  -0.1799999999991124 0.5 0  -0.1899999999991401 0.5 0  -0.1999999999991678 0.5 0  -0.2099999999991955 0.5 0  -0.2199999999992234 0.5 0  -0.2299999999992511 0.5 0  -0.2399999999992788 0.5 0  -0.2499999999993066 0.5 0  -0.2599999999993342 0.5 0  -0.269999999999362 0.5 0  -0.2799999999993897 0.5 0  -0.2899999999994175 0.5 0  -0.2999999999994452 0.5 0  -0.3099999999994729 0.5 0  -0.3199999999995007 0.5 0  -0.3299999999995284 0.5 0  -0.3399999999995562 0.5 0  -0.3499999999995839 0.5 0  -0.3599999999996116 0.5 0  -0.3699999999996393 0.5 0  -0.379999999999667 0.5 0  -0.3899999999996949 0.5 0  -0.3999999999997226 0.5 0  -0.4099999999997503 0.5 0  -0.419999999999778 0.5 0  -0.4299999999998058 0.5 0  -0.4399999999998336 0.5 0  -0.4499999999998613 0.5 0  -0.4599999999998891 0.5 0  -0.4699999999999167 0.5 0  -0.4799999999999445 0.5 0  -0.4899999999999722 0.5 0  -0.5 0.4902110204681464 0  -0.5 0.4804459958734807 0  -0.5 0.4707048677450883 0  -0.5 0.4609875815766065 0  -0.5 0.4512940759251849 0  -0.5 0.4416242912883993 0  -0.5 0.4319781678689807 0  -0.5 0.4223556545383647 0  -0.5 0.4127566896324213 0  -0.5 0.4031812128200121 0  -0.5 0.3936291733057916 0  -0.5 0.3841005081172659 0  -0.5 0.3745951585781932 0  -0.5 0.3651130778999337 0  -0.5 0.3556541993788045 0  -0.5 0.3462184677228392 0  -0.5 0.3368058273705318 0  -0.5 0.3274162224888609 0  -0.5 0.3180495969712945 0  -0.5 0.3087058944357755 0  -0.5 0.299385058222682 0  -0.5 0.2900870313927414 0  -0.5 0.2808117567250807 0  -0.5 0.2715591844628491 0  -0.5 0.2623292564012653 0  -0.5 0.253121909553727 0  -0.5 0.2439371050851549 0  -0.5 0.2347747685524501 0  -0.5 0.2256348634421331 0  -0.5 0.2165173209784076 0  -0.5 0.207422087829958 0  -0.5 0.1983491207029381 0  -0.5 0.1892983550950482 0  -0.5 0.1802697378305253 0  -0.5 0.1712632154965152 0  -0.5 0.1622787344187354 0  -0.5 0.1533162406595534 0  -0.5 0.1443756800160514 0  -0.5 0.1354569980180493 0  -0.5 0.1265601399261414 0  -0.5 0.1176850622761093 0  -0.5 0.1088317009011999 0  -0.5 0.09167500000001694 0  -0.5 0.08335000000003931 0  -0.5 0.07502500000006167 0  -0.5 0.06670000000008947 0  -0.5 0.05837500000011001 0  -0.5 0.0500500000001328 0  -0.5 0.0417250000001127 0  -0.5 0.03340000000008944 0  -0.5 0.02507500000006573 0  -0.5 0.01675000000004653 0  -0.5 0.008425000000027341 
[...]
<PointData  Scalars="f_25"> 
<DataArray  type="Float64"  Name="f_25"  format="ascii">1.0000000000000000e+00  1.3385138880743039e-04  1.2282820224933466e-01  2.0925407477022404e-02  4.4044061436247436e-02  8.2673224979915114e-04  1.0000000000000000e+00  1.0000000000000000e+00  2.3811445105417044e-02  2.2048806102247621e-02  1.2049292461574239e-03  1.2013026553710166e-03  1.3383805153922479e-04  1.5313597378294861e-04  1.8699709908414827e-04  2.2655426535035943e-04  2.6613593160742670e-04  3.0515594982697319e-04  3.4301343736224769e-04  3.8212896508383292e-04  4.1988583421220181e-04  4.5882328116078809e-04  4.9938815652443428e-04  5.4459765203266968e-04  5.9207476502256184e-04  6.4298361864247066e-04  6.9869505040455395e-04  7.6044355039568614e-04  8.3160422170687855e-04  9.0771209688205574e-04  9.9225096647148148e-04  1.0869585339787476e-03  1.1872993692118394e-03  1.2971406724939139e-03  1.4202705110395954e-03  1.5486744037289956e-03  1.6898219755989694e-03  1.8420578065098964e-03  2.0056574367013510e-03  2.1853839485449812e-03  2.3717446764878560e-03  2.5767060730289395e-03  2.7916577257414512e-03  3.0208737626648136e-03  3.2635116392537066e-03  3.5228372036563553e-03  3.7958833204344363e-03  4.0815955115316559e-03  4.3824824123612971e-03  4.6992575792047251e-03  5.0299360260816946e-03  5.3718585229083409e-03  5.7304322068425263e-03  6.1037588418829912e-03  6.4852169771099453e-03  6.8835862932300406e-03  7.2912995106304782e-03  7.7161604451154719e-03  8.1467056940214208e-03  8.5868874157916299e-03  9.0404435806052640e-03  9.4999124551308455e-03  9.9689934909950196e-03  1.0444432383660720e-02  1.0930786506615865e-02  1.1425906072029045e-02  1.1915669613928426e-02  1.2411086146442180e-02  1.2915304552835882e-02  1.3425309969727484e-02  1.3936066506920579e-02  1.4444823380717647e-02  1.4966756437362056e-02  1.5496088478586450e-02  1.6011678739573886e-02  1.6537371071000069e-02  1.7071329958907408e-02  1.7593612460734737e-02  1.8134813270841613e-02  1.8667456056683230e-02  1.9207110301997878e-02  1.9759313369255311e-02  2.0319696324694755e-02  2.0888885247750174e-02  2.1469147174059771e-02  2.2049365586082004e-02  2.2651459626770280e-02  2.3278020438344177e-02  2.3915334218047774e-02  2.4586705106639250e-02  2.5300235636246806e-02  2.6040478285807373e-02  2.6841182162923125e-02  2.7681856079948115e-02  2.8584383438008312e-02  2.9571936812173707e-02  3.0666206124129795e-02  3.1865567615398889e-02  3.3211523691306345e-02  3.4765627395897100e-02  3.6521989228925224e-02  3.8592901875828971e-02  4.1034810989327056e-02  4.4053607756688207e-02  4.7682018103630083e-02  5.2330324214691852e-02  5.8384366759292879e-02  6.6352590966092015e-02  7.6855437348818723e-02  9.0526463404320662e-02  1.0802287992694144e-01  1.1275127724280930e-01  9.4839980099299462e-02  8.0493798255974414e-02  6.9296209860524510e-02  6.1229150124777067e-02  5.5276012117773929e-02  5.0855207977039962e-02  4.7452835774143373e-02  4.4765516037102923e-02  4.2618670826510323e-02  4.0822992633392688e-02  3.9338628548325962e-02  3.8061675260834107e-02  3.6985120209795080e-02  3.6014780708133146e-02  3.5138083469205786e-02  3.4373816128878562e-02  3.3653981730639354e-02  3.2969811511400299e-02  3.2346568471570553e-02  3.1720421370858669e-02  3.1153275979287146e-02  3.0584177009471910e-02  3.0030641970313712e-02  2.9495460742447757e-02  2.8980312205594595e-02  2.8485025773076704e-02  2.7985086602425199e-02  2.7510988521624837e-02  2.7020929490733772e-02  2.6547782763225735e-02  2.6086072381937397e-02  2.5641207385960950e-02  2.5215910088737820e-02  2.4788656825346617e-02  2.4389186175530694e-02  2.3996554449523113e-02  2.3622373648357418e-02  2.3266457613921161e-02  2.2915114207489637e-02  2.2620141888365562e-02  2.2331527670958636e-02  2.1825886435808871e-02  2.1617660864146914e-02  2.1430552591144490e-02  2.1278869337219775e-02  2.1137561087345151e-02  2.1022347072670085e-02  2.0946425978600049e-02  2.0887865982539180e-02  2.0839539975585637e-02  2.0856736571182959e-02  2.0886578939240719e-02  2.1025545587449918e-02  2.1134090738020396e-02  2.1271194591891380e-02  2.1448693251676705e-02  2.1644235033979324e-02  2.1875093079690586e-02  2.2138516096634357e-02  2.2422425333035588e-02  2.2717813435739590e-02  2.3067308585009504e-02  2.3430146742942325e-02  2.4263100680320532e-02  2.4726004453116807e-02  2.5201769345451659e-02  2.5727660721746825e-02  2.6268266760070519e-02  2.6825943803132926e-02  2.7407076694480909e-02  2.7998910356978591e-02  2.8612859574840100e-02  2.9227416204903413e-02  2.9862797585309332e-02  3.0508821631820438e-02  3.1168200532537906e-02  3.1833305504802650e-02  3.2490484585659424e-02  3.3139116308158419e-02  3.3782934744508622e-02  3.4430753816265966e-02  3.5080360550912383e-02  3.5725415861714564e-02  3.6354390864619342e-02  3.6966230667078777e-02  3.7560131753274460e-02  3.8144505954974879e-02  3.8697341346254036e-02  3.9233698648985182e-02  3.9757958080608169e-02  4.0237062234170284e-02  4.0704056816777787e-02  4.1145763867345836e-02  4.1567231163353618e-02  4.1950972852697554e-02  4.2305295534046009e-02  4.2629005439497346e-02  4.2920657226401301e-02  4.3182896846888787e-02  4.3405726372107566e-02  4.3604695398681476e-02  4.3762904540682185e-02  4.3903876400787557e-02  4.3967579413808744e-02  4.4027328052618546e-02  4.3790947604946569e-02  4.3282990652690208e-02  4.2669293541733495e-02  4.2030276125225634e-02  4.1401548720501682e-02  4.0807567756934310e-02  4.0261338410643513e-02  3.9760096649760553e-02  3.9291784325442489e-02  3.8857860927103645e-02  3.8458519773687132e-02  3.8090100010486731e-02  3.7737428041093909e-02  3.7407229448438065e-02  3.7088891567117629e-02  3.6776780905598314e-02  3.6473418844723382e-02  3.6173160059434224e-02  3.5869682381813962e-02  3.5554271011339608e-02  3.5234863059596902e-02  3.4898033091217605e-02  3.4546960876462057e-02  3.4170298523939685e-02  3.3774136167159192e-02  3.3355758628310771e-02  3.2904268661004175e-02  3.2426640364070967e-02  3.1906099305920678e-02  3.1362255114978616e-02  3.0781158421744722e-02  3.0166562057881499e-02  2.9511583943174987e-02  2.8821471345974091e-02  2.8097936478477317e-02  2.7341008866387611e-02  2.6552521129533959e-02  2.5734322996533145e-02  2.4884446451796886e-02  2.3993744372499251e-02  2.3091588053834433e-02  2.2168499368684404e-02  2.1231021522744340e-02  2.0284028501729678e-02  1.9316819890447399e-02  1.8357482662600830e-02  1.7378988068010977e-02  1.6405912896329679e-02  1.5446865018079185e-02  1.4502845071230279e-02  1.3575891819520767e-02  1.2652080562625012e-02  1.1770006445842137e-02  1.0903447428352472e-02  1.0062753547607569e-02  9.2646745880595356e-03  8.4894291573324385e-03  7.7519202474297944e-03  7.0544205246831481e-03  6.3906279264011115e-03  5.7723995057545720e-03  5.1861135728287818e-03  4.6430860490052940e-03  4.1367557466790040e-03  3.6690946768270370e-03  3.2365696747107225e-03  2.8360107643948663e-03  2.4767787358784023e-03  2.1444040111805026e-03  1.8458880151430287e-03  1.5756291939906474e-03  1.3349465228122404e-03  1.1179080043884702e-03  9.2789283948082983e-04  7.5796549373450964e-04  6.1018498353520082e-04  4.8394168510452242e-04  3.7396141902670626e-04  2.8225627727606847e-04  2.0555062277958269e-04  1.4383386760526753e-04  9.6535893401264775e-05  6.2250024359403026e-05  4.0853997289034690e-05  3.1181494082908720e-05  3.2308037133850407e-05  4.3686934263772738e-05  6.4195666875777044e-05  9.3228315446672970e-05  1.2975698105675593e-04  1.7467720095314075e-04  2.2765857356141919e-04  2.8994309223448120e-04  3.5996446258165126e-04  4.4020538351956674e-04  5.2726296360609815e-04  6.2154830897218852e-04  7.1323384227113117e-04  7.8879706707672443e-04  8.2690355602993654e-04  8.2436695035845425e-04  8.2310752498366581e-04  8.1415652594352649e-04  8.0749899064231950e-04  7.9885623986607689e-04  7.8779147255486246e-04  7.7652824797264596e-04  7.6190520038926920e-04  7.4760392745447379e-04  7.3161836571408690e-04  7.1417233838325914e-04  6.9473900457258113e-04  6.7389117201264884e-04  6.5204715158437374e-04  6.2894520716708915e-04  6.0473688584022011e-04  5.7892823596551854e-04  5.5189673334430495e-04  5.2439236891601172e-04  4.9632498568497063e-04  4.6685521254893420e-04  4.3727092405185973e-04  4.0751771473490292e-04  3.7725134584166970e-04  3.4748286985001545e-04  3.1924162349701932e-04  2.9048305363336063e-04  2.6232250092947146e-04  2.3515646427104328e-04  2.0868088346997487e-04  1.8464931797393849e-04  1.6272669974130217e-04  1.4283280965400431e-04  1.2676227565555786e-04  1.1703680695628850e-04  1.1515606950848163e-04  1.2708632890879971e-04  1.6271442113203869e-04  2.3887198466764143e-04  3.9381453894176451e-04  6.8111565292266704e-04  2.1112388633910233e-03  3.6953339485967227e-03  6.4941191500249677e-03  1.1262690898172422e-02  1.9741505241022597e-02  3.4723938287853050e-02  6.0784149589295726e-02  1.0622307002317499e-01  1.8493094661878365e-01  3.2702571358614568e-01  5.7160168640401043e-01  1.0000000000000000e+00  1.0000000000000000e+00  1.0000000000000000e+00  1.0000000000000000e+00  1.0000000000000000e+00  1.0000000000000000e+00  1.0000000000000000e+00  1.0000000000000000e+00  1.0000000000000000e+00  1.0000000000000000e+00  1.0000000000000000e+00  1.0000000000000000e+00  1.0000000000000000e+00  1.0000000000000000e+00  1.0000000000000000e+00  1.0000000000000000e+00  1.0000000000000000e+00  1.0000000000000000e+00  1.0000000000000000e+00  1.0000000000000000e+00  1.0000000000000000e+00  1.0000000000000000e+00  1.0000000000000000e+00  1.0000000000000000e+00  1.0000000000000000e+00  1.0000000000000000e+00  1.0000000000000000e+00  1.0000000000000000e+00  1.0000000000000000e+00  1.0000000000000000e+00  1.0000000000000000e+00  1.0000000000000000e+00  1.0000000000000000e+00  1.0000000000000000e+00  1.0000000000000000e+00  1.0000000000000000e+00  1.0000000000000000e+00  1.0000000000000000e+00  1.0000000000000000e+00  1.0000000000000000e+00  1.0000000000000000e+00  1.0000000000000000e+00  1.0000000000000000e+00  1.0000000000000000e+00  1.0000000000000000e+00  1.0000000000000000e+00  1.0000000000000000e+00  1.0000000000000000e+00  1.0000000000000000e+00  1.0000000000000000e+00  1.0000000000000000e+00  1.0000000000000000e+00  1.0000000000000000e+00  1.0000000000000000e+00  1.0000000000000000e+00  1.0000000000000000e+00  1.0000000000000000e+00  1.0000000000000000e+00  1.0000000000000000e+00  1.0000000000000000e+00  1.0000000000000000e+00  1.0000000000000000e+00  1.0000000000000000e+00  1.0000000000000000e+00  1.0000000000000000e+00  1.0000000000000000e+00  1.0000000000000000e+00  1.0000000000000000e+00  1.0000000000000000e+00  1.0000000000000000e+00  9.9999999999999989e-01  1.0000000000000000e+00  1.0000000000000000e+00  1.0000000000000000e+00  1.0000000000000000e+00  1.0000000000000000e+00  1.0000000000000000e+00  1.0000000000000000e+00  1.0000000000000000e+00  9.9999999999999989e-01  1.0000000000000000e+00  1.0000000000000000e+00  1.0000000000000000e+00  1.0000000000000000e+00  1.0000000000000000e+00  1.0000000000000000e+00  1.0000000000000000e+00  1.0000000000000000e+00  1.0000000000000000e+00  1.0000000000000000e+00  1.0000000000000000e+00  1.0000000000000000e+00  1.0000000000000000e+00  1.0000000000000000e+00  9.9999999999999989e-01  1.0000000000000000e+00  1.0000000000000000e+00  1.0000000000000000e+00  1.0000000000000000e+00  1.0000000000000000e+00  1.0000000000000000e+00  1.0000000000000000e+00  1.0000000000000000e+00  1.0000000000000000e+00  1.0000000000000000e+00  1.0000000000000000e+00  1.0000000000000000e+00  1.0000000000000000e+00  1.0000000000000000e+00  1.0000000000000000e+00  5.7157112854101799e-01  3.2704091098790627e-01  1.8489424176079591e-01  1.0624096315884593e-01  6.0791765760594731e-02  3.4729849647258268e-02  1.9749728438696046e-02  1.1265553856443426e-02  6.4993085298735535e-03  3.6991928954672130e-03  2.1149324825252220e-03  6.8527653849148379e-04  3.9855531905832320e-04  2.4393233963074392e-04  1.6894547451650553e-04  1.3397839934839312e-04  1.2243997702454310e-04  1.2439619789953707e-04  1.3388736924612127e-04  1.4898679941563348e-04  1.6734773905231531e-04  1.8715639902437919e-04  2.0765012612997634e-04  2.2961245775456111e-04  2.5103535889451777e-04  2.7183074986639199e-04  2.9202479271201994e-04  3.0968138733412497e-04  3.2690734648184596e-04  3.4221479922886790e-04  3.5506602867483846e-04  3.6572091482485285e-04  3.7358757411222552e-04  3.7810974858343304e-04  3.7910276584092375e-04  3.7698611672217234e-04  3.7171093516521461e-04  3.6306260749239107e-04  3.5044237013263582e-04  3.3451540276822678e-04  3.1633461467055055e-04  2.9496300199667607e-04  2.7136616542083582e-04  2.4600023339269906e-04  2.1914129184107147e-04  1.9250816201876991e-04  1.6830367816352427e-04  1.4504706641608483e-04  1.2464239266449465e-04  1.1032505483494595e-04  1.0249726226471578e-04  1.1054617501969451e-04  1.2393119051224373e-04  1.2004706982035624e-03  1.2086876879532956e-03  1.2158638122815471e-03  1.2206987042083493e-03  1.2254688150296572e-03  1.2515636325933189e-03  1.2608172837874302e-03  1.2577338168820755e-03  1.2844636926153438e-03  1.3120530271004049e-03  1.3048998986836657e-03  1.3343302929854496e-03  1.3600948760427883e-03  1.3740885706012196e-03  1.3872690948985792e-03  1.3917321092284756e-03  1.4030735441516399e-03  1.4042411163072766e-03  1.4334303386518380e-03  1.4460236567218612e-03  1.4426040955497720e-03  1.4477768657689652e-03  1.4653982632014582e-03  1.4665481116294978e-03  1.4534324010610665e-03  1.4526337985716951e-03  1.4480490334865951e-03  1.4341199736754816e-03  1.4363555623798352e-03  1.4182822666001654e-03  1.3982058202638803e-03  1.3909746754930845e-03  1.3810340194893599e-03  1.3620207567325811e-03  1.3710241256113314e-03  1.3968613820663338e-03  1.3900688065966505e-03  1.4493352064465677e-03  1.5224799702098768e-03  1.6187748810916898e-03  1.8131883914529489e-03  2.0537346573945348e-03  2.3832314459533415e-03  2.8697148624818010e-03  3.5079315479999156e-03  4.3774589243456953e-03  5.5424521570804648e-03  7.0372776392922266e-03  8.9270455492122744e-03  1.1307161740524698e-02  1.4231440337280254e-02  1.7741165060845797e-02  2.1863706160135419e-02  2.6364799517852994e-02  3.1219998961000944e-02  3.6283899691097417e-02  4.1199569218774573e-02  4.5692953863765630e-02  4.9630463798225805e-02  5.2720452437485840e-02  5.4898695851230382e-02  5.6207917446102151e-02  5.6703441878583956e-02  5.6518145348107687e-02  5.5783640841547459e-02  5.4646306200112758e-02  5.3270512320116530e-02  5.1720047310210217e-02  5.0106417348727908e-02  4.8462265527365017e-02  4.6902185270342296e-02  4.5398445892235004e-02  4.3984474829353887e-02  4.2673547992609931e-02  4.1473052674446891e-02  4.0369079599814749e-02  3.9359256022201181e-02  3.8456459859928065e-02  3.7638288313979709e-02  3.6899780593132002e-02  3.6224587826116435e-02  3.5608429868030457e-02  3.5050689667551253e-02  3.4540927281573153e-02  3.4063763977685617e-02  3.3632053548386082e-02  3.3229068602307843e-02  3.2857017741113853e-02  3.2503510510361253e-02  3.2160566588994841e-02  3.1838443554664218e-02  3.1526712161360874e-02  3.1213613466275252e-02  3.0901924447761877e-02  3.0586290574478706e-02  3.0271941152725617e-02  2.9950896107461888e-02  2.9616753620826219e-02  2.9270176173881744e-02  2.8907020688417356e-02  2.8527950961264467e-02  2.8130102897235075e-02  2.7714524219398341e-02  2.7275074788222605e-02  2.6811454478883664e-02  2.6330465169936593e-02  2.5827463876834954e-02  2.5317852177346174e-02  2.4812823180295870e-02  2.4346720388834637e-02  2.3980805220459613e-02  1.2041658589652462e-03  1.2121072968492598e-03  1.2193983795816788e-03  1.2242631815911913e-03  1.2290624312805698e-03  1.2554299680949778e-03  1.2639087507354430e-03  1.2604348002232810e-03  1.2857160900070618e-03  1.3116740301946218e-03  1.3052874979424835e-03  1.3305715440602196e-03  1.3544554940194428e-03  1.3662928419007029e-03  1.3773083563771986e-03  1.3803005361278957e-03  1.3884572477991853e-03  1.3855201362544662e-03  1.4143325278926230e-03  1.4294179965986340e-03  1.4251745870074966e-03  1.4305218170415491e-03  1.4449110643035567e-03  1.4456395024839443e-03  1.4312310211210984e-03  1.4300917110247964e-03  1.4261958626669460e-03  1.4126522999292300e-03  1.4145924082066257e-03  1.3974589453981752e-03  1.3772832175376697e-03  1.3689535028021500e-03  1.3573535784051824e-03  1.3373083103322618e-03  1.3443266204716860e-03  1.3674545541388266e-03  1.3546979301531370e-03  1.4060638422520443e-03  1.4668676321401848e-03  1.5476950288974985e-03  1.7225638901723938e-03  1.9346966486412374e-03  2.2296884003144618e-03  2.6727018355543965e-03  3.2532134148337121e-03  4.0515116388715024e-03  5.1290482056516595e-03  6.5192159149671559e-03  8.2867192134495598e-03  1.0529100351954186e-02  1.3301276134034007e-02  1.6650503456719437e-02  2.0605295289101509e-02  2.4956583270645743e-02  2.9684799785487673e-02  3.4653974590473077e-02  3.9527232971344861e-02  4.4049907244612503e-02  4.8070197535238779e-02  5.1310053746921790e-02  5.3692170778009578e-02  5.5232678242351112e-02  5.5981735620428991e-02  5.6054332293763637e-02  5.5555104029810044e-02  5.4639208887068927e-02  5.3459713183794944e-02  5.2075217497248222e-02  5.0598129158667640e-02  4.9059179378488270e-02  4.7587427239103482e-02  4.6151995614122844e-02  4.4779966236717296e-02  4.3501987219482799e-02  4.2322221060974163e-02  4.1228395298584936e-02  4.0219435797595376e-02  3.9309687115193413e-02  3.8478529398826518e-02  3.7723847981391452e-02  3.7027669201456281e-02  3.6384979549706008e-02  3.5798443560127208e-02  3.5254886038592156e-02  3.4742134558689415e-02  3.4269297836427459e-02  3.3821656999402171e-02  3.3402507562409881e-02  3.2997596272971802e-02  3.2597561073292876e-02  3.2214348136371064e-02  3.1836441633924073e-02  3.1451566742499347e-02  3.1063998611384154e-02  3.0665637893903974e-02  3.0263817810222204e-02  2.9850605364079796e-02  2.9417444604283693e-02  2.8966912791012007e-02  2.8493442446182078e-02  2.7998666583131174e-02  2.7481762920840227e-02  2.6942071489413244e-02  2.6376310489802202e-02  2.5784144720513488e-02  2.5172072615507513e-02  2.4539666714804408e-02  2.3901302948644249e-02  2.3273231669625492e-02  2.2701050978164702e-02  2.2252182937205368e-02  6.8079610312963657e-01  4.7740685297308738e-01  3.3057664981435742e-01  2.3769723849103536e-01  1.7616338620349170e-01  1.3426269945209074e-01  1.0582127887513806e-01  8.6680985806795952e-02  7.2979472139391960e-02  6.3303319269733038e-02  5.6169838893885611e-02  5.0752883127475765e-02  4.6663620976340345e-02  4.3487518347577393e-02  4.0986078816526141e-02  3.8976305132866131e-02  3.7369634926631909e-02  3.6052635268966349e-02  3.4961205731191110e-02  3.4068425200030991e-02  3.3319815990966797e-02  3.2681174671205980e-02  3.2150836000273075e-02  3.1694866105069407e-02  3.1305377489466275e-02  3.0974651203049788e-02  3.0671402963440141e-02  3.0416374619646015e-02  3.0180173918015012e-02  2.9962397521379348e-02  2.9767694078838388e-02  2.9587084897816709e-02  2.9406162422639631e-02  2.9221609828826808e-02  2.9035092604324856e-02  2.8838138744692883e-02  2.8640013899659211e-02  2.8424970650594322e-02  2.8194657399634882e-02  2.7948103259845140e-02  2.7680990404614612e-02  2.7391635726024818e-02  2.7073572516999621e-02  2.6729627297416680e-02  2.6349211353144532e-02  2.5938695718053441e-02  2.5496704706424300e-02  2.5014049377344923e-02  2.4499587531367946e-02  2.3944609859250603e-02  2.3359509473951112e-02  2.2756071111894326e-02  2.2149169615666483e-02  2.1588756197865693e-02  2.1130090133187687e-02  7.1903653558850721e-03  1.7320860612768431e-04  3.0552660827738453e-02  3.6788206070768437e-02  2.2509792138590400e-02  8.4886166400990675e-04  2.3465409469014949e-04  3.8882748377581371e-02  3.3686098431338164e-02  1.6875234449902878e-02  1.9158699579662302e-03  9.5658176600002930e-05  3.3546154320557582e-02  3.7573969474640985e-02  6.6149670233462046e-03  1.6343720890087110e-04  3.9233488814050636e-02  2.6430670643369937e-02  2.7568995104628813e-04  7.1657905169835714e-03  3.6024439817088603e