<?xml version="1.0"?>
<VTKFile type="UnstructuredGrid"  version="0.1"  >
<UnstructuredGrid>
<Piece  NumberOfPoints="15540" NumberOfCells="30546">
<Points>
<DataArray  type="Float64"  NumberOfComponents="3"  format="ascii">0 0 0  -0.5 -0.5 0  0.5 -0.5 0  0.5 0 0  0.5 0.5 0  -0.5 0.5 0  -0.5 0.0001 0  -0.5 -0.0001 0  0.5 0.1 0  0.5 -0.1 0  -0.5 -0.1 0  -0.5 0.1 0  -0.4900000000000277 -0.5 0  -0.4800000000000555 -0.5 0  -0.4700000000000832 -0.5 0  -0.4600000000001109 -0.5 0  -0.4500000000001387 -0.5 0  -0.4400000000001664 -0.5 0  -0.4300000000001942 -0.5 0  -0.4200000000002219 -0.5 0  -0.4100000000002497 -0.5 0  -0.4000000000002774 -0.5 0  -0.3900000000003052 -0.5 0  -0.3800000000003328 -0.5 0  -0.3700000000003606 -0.5 0  -0.3600000000003883 -0.5 0  -0.3500000000004161 -0.5 0  -0.3400000000004438 -0.5 0  -0.3300000000004716 -0.5 0  -0.3200000000004993 -0.5 0  -0.3100000000005271 -0.5 0  -0.3000000000005548 -0.5 0  -0.2900000000005825 -0.5 0  -0.2800000000006103 -0.5 0  -0.2700000000006381 -0.5 0  -0.2600000000006658 -0.5 0  -0.2500000000006935 -0.5 0  -0.2400000000007212 -0.5 0  -0.230000000000749 -0.5 0  -0.2200000000007767 -0.5 0  -0.2100000000008044 -0.5 0  -0.2000000000008322 -0.5 0  -0.19000000000086 -0.5 0  -0.1800000000008877 -0.5 0  -0.1700000000009154 -0.5 0  -0.1600000000009431 -0.5 0  -0.1500000000009709 -0.5 0  -0.1400000000009986 -0.5 0  -0.1300000000010264 -0.5 0  -0.1200000000010541 -0.5 0  -0.1100000000010818 -0.5 0  -0.1000000000011096 -0.5 0  -0.09000000000113734 -0.5 0  -0.08000000000116503 -0.5 0  -0.07000000000119283 -0.5 0  -0.06000000000122058 -0.5 0  -0.05000000000124827 -0.5 0  -0.04000000000127607 -0.5 0  -0.03000000000130376 -0.5 0  -0.02000000000133151 -0.5 0  -0.01000000000135925 -0.5 0  -1.376121439022882e-12 -0.5 0  0.009999999998640763 -0.5 0  0.01999999999866864 -0.5 0  0.02999999999869629 -0.5 0  0.03999999999872406 -0.5 0  0.04999999999875182 -0.5 0  0.05999999999877947 -0.5 0  0.06999999999880724 -0.5 0  0.079999999998835 -0.5 0  0.08999999999886266 -0.5 0  0.09999999999889042 -0.5 0  0.1099999999989182 -0.5 0  0.1199999999989459 -0.5 0  0.1299999999989737 -0.5 0  0.1399999999990014 -0.5 0  0.1499999999990291 -0.5 0  0.1599999999990568 -0.5 0  0.1699999999990847 -0.5 0  0.1799999999991124 -0.5 0  0.1899999999991401 -0.5 0  0.1999999999991678 -0.5 0  0.2099999999991955 -0.5 0  0.2199999999992234 -0.5 0  0.2299999999992511 -0.5 0  0.2399999999992788 -0.5 0  0.2499999999993066 -0.5 0  0.2599999999993342 -0.5 0  0.269999999999362 -0.5 0  0.2799999999993897 -0.5 0  0.2899999999994175 -0.5 0  0.2999999999994452 -0.5 0  0.3099999999994729 -0.5 0  0.3199999999995007 -0.5 0  0.3299999999995284 -0.5 0  0.3399999999995562 -0.5 0  0.3499999999995839 -0.5 0  0.3599999999996116 -0.5 0  0.3699999999996393 -0.5 0  0.379999999999667 -0.5 0  0.3899999999996949 -0.5 0  0.3999999999997226 -0.5 0  0.4099999999997503 -0.5 0  0.419999999999778 -0.5 0  0.4299999999998058 -0.5 0  0.4399999999998336 -0.5 0  0.4499999999998613 -0.5 0  0.4599999999998891 -0.5 0  0.4699999999999167 -0.5 0  0.4799999999999445 -0.5 0  0.4899999999999722 -0.5 0  0.5 -0.4902110204681464 0  0.5 -0.4804459958734807 0  0.5 -0.4707048677450883 0  0.5 -0.4609875815766065 0  0.5 -0.4512940759251849 0  0.5 -0.4416242912883993 0  0.5 -0.4319781678689807 0  0.5 -0.4223556545383647 0  0.5 -0.4127566896324213 0  0.5 -0.4031812128200121 0  0.5 -0.3936291733057916 0  0.5 -0.3841005081172659 0  0.5 -0.3745951585781932 0  0.5 -0.3651130778999337 0  0.5 -0.3556541993788045 0  0.5 -0.3462184677228392 0  0.5 -0.3368058273705318 0  0.5 -0.3274162224888609 0  0.5 -0.3180495969712945 0  0.5 -0.3087058944357755 0  0.5 -0.299385058222682 0  0.5 -0.2900870313927414 0  0.5 -0.2808117567250807 0  0.5 -0.2715591844628491 0  0.5 -0.2623292564012653 0  0.5 -0.253121909553727 0  0.5 -0.2439371050851549 0  0.5 -0.2347747685524501 0  0.5 -0.2256348634421331 0  0.5 -0.2165173209784076 0  0.5 -0.207422087829958 0  0.5 -0.1983491207029381 0  0.5 -0.1892983550950482 0  0.5 -0.1802697378305253 0  0.5 -0.1712632154965152 0  0.5 -0.1622787344187354 0  0.5 -0.1533162406595534 0  0.5 -0.1443756800160514 0  0.5 -0.1354569980180493 0  0.5 -0.1265601399261414 0  0.5 -0.1176850622761093 0  0.5 -0.1088317009011999 0  0.5 -0.09166666666668973 0  0.5 -0.08333333333337943 0  0.5 -0.07500000000006915 0  0.5 -0.06666666666675886 0  0.5 -0.05833333333344858 0  0.5 -0.05000000000013693 0  0.5 -0.04166666666678191 0  0.5 -0.03333333333342643 0  0.5 -0.02500000000006916 0  0.5 -0.01666666666671188 0  0.5 -0.00833333333335548 0  0.5 0.008333333333318314 0  0.5 0.01666666666663358 0  0.5 0.02499999999994162 0  0.5 0.03333333333325101 0  0.5 0.04166666666655769 0  0.5 0.04999999999986843 0  0.5 0.05833333333322258 0  0.5 0.06666666666657715 0  0.5 0.07499999999993352 0  0.5 0.08333333333328992 0  0.5 0.09166666666664541 0  0.5 0.1088317009011616 0  0.5 0.1176850622760307 0  0.5 0.1265601399260203 0  0.5 0.1354569980178909 0  0.5 0.1443756800158549 0  0.5 0.153316240659315 0  0.5 0.1622787344184454 0  0.5 0.1712632154961752 0  0.5 0.1802697378301332 0  0.5 0.1892983550946039 0  0.5 0.1983491207024433 0  0.5 0.2074220878294123 0  0.5 0.216517320977811 0  0.5 0.2256348634414833 0  0.5 0.2347747685517479 0  0.5 0.2439371050844009 0  0.5 0.2531219095529224 0  0.5 0.2623292564004089 0  0.5 0.2715591844619371 0  0.5 0.2808117567241139 0  0.5 0.290087031391723 0  0.5 0.2993850582216101 0  0.5 0.3087058944347426 0  0.5 0.3180495969703129 0  0.5 0.3274162224879299 0  0.5 0.3368058273696494 0  0.5 0.3462184677220051 0  0.5 0.3556541993780186 0  0.5 0.3651130778991989 0  0.5 0.3745951585775107 0  0.5 0.3841005081166359 0  0.5 0.3936291733052134 0  0.5 0.4031812128194852 0  0.5 0.412756689631945 0  0.5 0.4223556545379392 0  0.5 0.431978167868607 0  0.5 0.4416242912880781 0  0.5 0.4512940759249164 0  0.5 0.4609875815763912 0  0.5 0.4707048677449264 0  0.5 0.4804459958733726 0  0.5 0.4902110204680924 0  0.4900000000000277 0.5 0  0.4800000000000555 0.5 0  0.4700000000000832 0.5 0  0.4600000000001109 0.5 0  0.4500000000001387 0.5 0  0.4400000000001664 0.5 0  0.4300000000001942 0.5 0  0.4200000000002219 0.5 0  0.4100000000002497 0.5 0  0.4000000000002774 0.5 0  0.3900000000003052 0.5 0  0.3800000000003328 0.5 0  0.3700000000003606 0.5 0  0.3600000000003883 0.5 0  0.3500000000004161 0.5 0  0.3400000000004438 0.5 0  0.3300000000004716 0.5 0  0.3200000000004993 0.5 0  0.3100000000005271 0.5 0  0.3000000000005548 0.5 0  0.2900000000005825 0.5 0  0.2800000000006103 0.5 0  0.2700000000006381 0.5 0  0.2600000000006658 0.5 0  0.2500000000006935 0.5 0  0.2400000000007212 0.5 0  0.230000000000749 0.5 0  0.2200000000007767 0.5 0  0.2100000000008044 0.5 0  0.2000000000008322 0.5 0  0.19000000000086 0.5 0  0.1800000000008877 0.5 0  0.1700000000009154 0.5 0  0.1600000000009431 0.5 0  0.1500000000009709 0.5 0  0.1400000000009986 0.5 0  0.1300000000010264 0.5 0  0.1200000000010541 0.5 0  0.1100000000010818 0.5 0  0.1000000000011096 0.5 0  0.09000000000113734 0.5 0  0.08000000000116503 0.5 0  0.07000000000119283 0.5 0  0.06000000000122058 0.5 0  0.05000000000124827 0.5 0  0.04000000000127607 0.5 0  0.03000000000130376 0.5 0  0.02000000000133151 0.5 0  0.01000000000135925 0.5 0  1.376121439022882e-12 0.5 0  -0.009999999998640763 0.5 0  -0.01999999999866864 0.5 0  -0.02999999999869629 0.5 0  -0.03999999999872406 0.5 0  -0.04999999999875182 0.5 0  -0.05999999999877947 0.5 0  -0.06999999999880724 0.5 0  -0.079999999998835 0.5 0  -0.08999999999886266 0.5 0  -0.09999999999889042 0.5 0  -0.1099999999989182 0.5 0  -0.1199999999989459 0.5 0  -0.1299999999989737 0.5 0  -0.1399999999990014 0.5 0  -0.1499999999990291 0.5 0  -0.1599999999990568 0.5 0  -0.1699999999990847 0.5 0  -0.1799999999991124 0.5 0  -0.1899999999991401 0.5 0  -0.1999999999991678 0.5 0  -0.2099999999991955 0.5 0  -0.2199999999992234 0.5 0  -0.2299999999992511 0.5 0  -0.2399999999992788 0.5 0  -0.2499999999993066 0.5 0  -0.2599999999993342 0.5 0  -0.269999999999362 0.5 0  -0.2799999999993897 0.5 0  -0.2899999999994175 0.5 0  -0.2999999999994452 0.5 0  -0.3099999999994729 0.5 0  -0.3199999999995007 0.5 0  -0.3299999999995284 0.5 0  -0.3399999999995562 0.5 0  -0.3499999999995839 0.5 0  -0.3599999999996116 0.5 0  -0.3699999999996393 0.5 0  -0.379999999999667 0.5 0  -0.3899999999996949 0.5 0  -0.3999999999997226 0.5 0  -0.4099999999997503 0.5 0  -0.419999999999778 0.5 0  -0.4299999999998058 0.5 0  -0.4399999999998336 0.5 0  -0.4499999999998613 0.5 0  -0.4599999999998891 0.5 0  -0.4699999999999167 0.5 0  -0.4799999999999445 0.5 0  -0.4899999999999722 0.5 0  -0.5 0.4902110204681464 0  -0.5 0.4804459958734807 0  -0.5 0.4707048677450883 0  -0.5 0.4609875815766065 0  -0.5 0.4512940759251849 0  -0.5 0.4416242912883993 0  -0.5 0.4319781678689807 0  -0.5 0.4223556545383647 0  -0.5 0.4127566896324213 0  -0.5 0.4031812128200121 0  -0.5 0.3936291733057916 0  -0.5 0.3841005081172659 0  -0.5 0.3745951585781932 0  -0.5 0.3651130778999337 0  -0.5 0.3556541993788045 0  -0.5 0.3462184677228392 0  -0.5 0.3368058273705318 0  -0.5 0.3274162224888609 0  -0.5 0.3180495969712945 0  -0.5 0.3087058944357755 0  -0.5 0.299385058222682 0  -0.5 0.2900870313927414 0  -0.5 0.2808117567250807 0  -0.5 0.2715591844628491 0  -0.5 0.2623292564012653 0  -0.5 0.253121909553727 0  -0.5 0.2439371050851549 0  -0.5 0.2347747685524501 0  -0.5 0.2256348634421331 0  -0.5 0.2165173209784076 0  -0.5 0.207422087829958 0  -0.5 0.1983491207029381 0  -0.5 0.1892983550950482 0  -0.5 0.1802697378305253 0  -0.5 0.1712632154965152 0  -0.5 0.1622787344187354 0  -0.5 0.1533162406595534 0  -0.5 0.1443756800160514 0  -0.5 0.1354569980180493 0  -0.5 0.1265601399261414 0  -0.5 0.1176850622761093 0  -0.5 0.1088317009011999 0  -0.5 0.09167500000001694 0  -0.5 0.08335000000003931 0  -0.5 0.07502500000006167 0  -0.5 0.06670000000008947 0  -0.5 0.05837500000011001 0  -0.5 0.0500500000001328 0  -0.5 0.0417250000001127 0  -0.5 0.03340000000008944 0  -0.5 0.02507500000006573 0  -0.5 0.01675000000004653 0  -0.5 0.008425000000027341 
[...]
<PointData  Scalars="f_25"> 
<DataArray  type="Float64"  Name="f_25"  format="ascii">1.0000000000000000e+00  1.3051480982139934e-04  1.3719573570947038e-01  2.2964852267713377e-02  4.8995509159265947e-02  9.1863524640830652e-04  1.0000000000000000e+00  1.0000000000000000e+00  2.6174597526140854e-02  2.4283317644307380e-02  1.2065435453882225e-03  1.2028902213210341e-03  1.3328347434066122e-04  1.5589673142192857e-04  1.9241983952372746e-04  2.3432391795044630e-04  2.7582094903453821e-04  3.1655657770213869e-04  3.5600244440997536e-04  3.9675759049170238e-04  4.3607045375605838e-04  4.7656632040203562e-04  5.1870629752922388e-04  5.6572882586993477e-04  6.1519314359951649e-04  6.6836947628753007e-04  7.2672158505539589e-04  7.9157246268696138e-04  8.6651000676597918e-04  9.4681878404669594e-04  1.0362002626948552e-03  1.1365179891109217e-03  1.2429767882520806e-03  1.3596787787128546e-03  1.4906963184027158e-03  1.6274922866113979e-03  1.7780532332678553e-03  1.9406285591290378e-03  2.1155404698241934e-03  2.3079406268245997e-03  2.5076463735450856e-03  2.7274998962357696e-03  2.9583034077711717e-03  3.2046712971400509e-03  3.4657237542912692e-03  3.7450241388738044e-03  4.0394242838450115e-03  4.3477611211968680e-03  4.6727710907849924e-03  5.0153175676147721e-03  5.3732176479123180e-03  5.7436531059295512e-03  6.1324751156080970e-03  6.5377775521893193e-03  6.9522907007515729e-03  7.3856528160013389e-03  7.8294588025071745e-03  8.2924962952250336e-03  8.7620341057466113e-03  9.2427611245869609e-03  9.7386410495072170e-03  1.0241393799733775e-02  1.0755114099222418e-02  1.1276512095762364e-02  1.1810476945979727e-02  1.2354364118570200e-02  1.2893125181142910e-02  1.3438845367165012e-02  1.3994584226021806e-02  1.4557335711882967e-02  1.5121620962432726e-02  1.5684459580395552e-02  1.6262402792981020e-02  1.6848985050236617e-02  1.7421363900424251e-02  1.8005418077402396e-02  1.8599187222275004e-02  1.9181008714946352e-02  1.9784284519863846e-02  2.0378980424971136e-02  2.0981972162559360e-02  2.1599504016102666e-02  2.2226801922198253e-02  2.2864646297742933e-02  2.3515420615513542e-02  2.4167036481668444e-02  2.4843438361944664e-02  2.5547809231283056e-02  2.6265096478756630e-02  2.7020822691686687e-02  2.7824356223723336e-02  2.8658454806660228e-02  2.9560868921202171e-02  3.0508666469105172e-02  3.1526551694626495e-02  3.2640516808081312e-02  3.3874986489029937e-02  3.5228152628459020e-02  3.6746761907911631e-02  3.8500321668407680e-02  4.0482075948210877e-02  4.2818583774744047e-02  4.5573746851053150e-02  4.8978042425490365e-02  5.3068072883349700e-02  5.8304840826829352e-02  6.5120794042441546e-02  7.4075857452826008e-02  8.5861558054871751e-02  1.0116311450442042e-01  1.2069762740990951e-01  1.2585588318825197e-01  1.0571087823404333e-01  8.9567354015778214e-02  7.6991310038547672e-02  6.7951168859851446e-02  6.1298370438646506e-02  5.6370142854207321e-02  5.2590251705116338e-02  4.9612438755528239e-02  4.7238268128838509e-02  4.5256663927692252e-02  4.3620245474377525e-02  4.2213977526395441e-02  4.1028121466061745e-02  3.9959189403178545e-02  3.8992751519738085e-02  3.8148935793936418e-02  3.7353254309209764e-02  3.6595927063069314e-02  3.5904127108693798e-02  3.5208418995403827e-02  3.4576342197656221e-02  3.3941205665246950e-02  3.3322157223917029e-02  3.2722416329326251e-02  3.2144012420162862e-02  3.1586877867338548e-02  3.1024084063048178e-02  3.0488839833149987e-02  2.9935501820916442e-02  2.9400418650785624e-02  2.8877759793810742e-02  2.8373495378284500e-02  2.7890890015787741e-02  2.7405949301427732e-02  2.6951785584556503e-02  2.6505236243118104e-02  2.6079346591486880e-02  2.5673822742626532e-02  2.5273613720810401e-02  2.4936388387836492e-02  2.4606477646770430e-02  2.4027564430638287e-02  2.3788534184009572e-02  2.3573296745531134e-02  2.3397881488430007e-02  2.3234281820225140e-02  2.3100001511547900e-02  2.3009997560681665e-02  2.2939640936382358e-02  2.2880964953489000e-02  2.2895913427564606e-02  2.2925233448878507e-02  2.3073387239859681e-02  2.3191643803638442e-02  2.3342167061667713e-02  2.3538239690750331e-02  2.3754803327796486e-02  2.4011170449579875e-02  2.4304427551864859e-02  2.4620943799324051e-02  2.4950620128262071e-02  2.5341412063545152e-02  2.5747487064916225e-02  2.6681036781879400e-02  2.7200496624109963e-02  2.7734759057726044e-02  2.8325877442588639e-02  2.8933788389591885e-02  2.9561338208807391e-02  3.0215573654831823e-02  3.0882246926712213e-02  3.1574197670754513e-02  3.2267148609568815e-02  3.2983819874900851e-02  3.3712770060670340e-02  3.4456925400015263e-02  3.5207804324428840e-02  3.5949940569141026e-02  3.6682546733766606e-02  3.7409872908967766e-02  3.8141774035177455e-02  3.8875693171654936e-02  3.9604435001304665e-02  4.0315071968668965e-02  4.1006419253945769e-02  4.1677449058904123e-02  4.2337754458823207e-02  4.2962192948650564e-02  4.3568005656391066e-02  4.4160124724661673e-02  4.4701147569692325e-02  4.5228288320541744e-02  4.5726942827503420e-02  4.6202489699728233e-02  4.6635528029788882e-02  4.7035177402742753e-02  4.7400335064991084e-02  4.7729219870570279e-02  4.8024923198409446e-02  4.8276178321199584e-02  4.8500438643858661e-02  4.8678730446840207e-02  4.8837708889256093e-02  4.8909392591761025e-02  4.8976699130734602e-02  4.8709256350152205e-02  4.8134371317896350e-02  4.7439046756899382e-02  4.6713826091993454e-02  4.5998745037603303e-02  4.5321468720644915e-02  4.4696790435717296e-02  4.4121758209411513e-02  4.3582537105983900e-02  4.3081278715088350e-02  4.2618110138662631e-02  4.2189088969265924e-02  4.1776909217422796e-02  4.1389740513923884e-02  4.1015504273890807e-02  4.0647778391501327e-02  4.0289568759942579e-02  3.9934595935727762e-02  3.9576053670105346e-02  3.9203826695293653e-02  3.8827328293963806e-02  3.8431260517608180e-02  3.8019651515863936e-02  3.7579371469877859e-02  3.7117904829417840e-02  3.6632366610902037e-02  3.6110153330692951e-02  3.5559552176703937e-02  3.4961603640473321e-02  3.4338996075219799e-02  3.3675910874293578e-02  3.2976826338471953e-02  3.2233990053598484e-02  3.1453502240730416e-02  3.0637547606258225e-02  2.9786092865099048e-02  2.8901382373917293e-02  2.7985583223320492e-02  2.7036553886466905e-02  2.6044248343684889e-02  2.5041267278854952e-02  2.4017182323695974e-02  2.2979325248753756e-02  2.1932956324825597e-02  2.0866231638502084e-02  1.9810228018707628e-02  1.8735026294499208e-02  1.7667676388018572e-02  1.6617548009144324e-02  1.5585658242425828e-02  1.4574101714168616e-02  1.3567561062059781e-02  1.2608062677815781e-02  1.1666901129637997e-02  1.0755232133730728e-02  9.8911228988242689e-03  9.0529191684333814e-03  8.2567812502708521e-03  7.5048751957651760e-03  6.7903562662688993e-03  6.1258890868321689e-03  5.4966336077956974e-03  4.9146242462430037e-03  4.3727257099592104e-03  3.8729475035433388e-03  3.4113885166639178e-03  2.9845532023565001e-03  2.6023190059618379e-03  2.2491702686053554e-03  1.9325067611959724e-03  1.6462480098689714e-03  1.3917200847635613e-03  1.1626450404927770e-03  9.6246978916687397e-04  7.8384380187765108e-04  6.2886730247682589e-04  4.9683586222135263e-04  3.8216886940831450e-04  2.8692095759472408e-04  2.0764550494320447e-04  1.4437292666168779e-04  9.6387299819365445e-05  6.2254783079307321e-05  4.1842371571334963e-05  3.3847414988771025e-05  3.7352201127702835e-05  5.1686770457577341e-05  7.5686784894197075e-05  1.0874184879502669e-04  1.4978308181582285e-04  1.9986165265013423e-04  2.5863937242694601e-04  3.2750581621291970e-04  4.0476551399600344e-04  4.9318888955598658e-04  5.8904629143487035e-04  6.9282333781238924e-04  7.9371917942813632e-04  8.7687912350920244e-04  9.1879423850461538e-04  9.1591700857489755e-04  9.1439343875999611e-04  9.0434240627228430e-04  8.9675689189844905e-04  8.8693402701333138e-04  8.7440491060625724e-04  8.6161845014175436e-04  8.4509427079384699e-04  8.2888307254068883e-04  8.1079252084483564e-04  7.9107448594735918e-04  7.6914633190215773e-04  7.4566361461959906e-04  7.2106344311491074e-04  6.9509201646877341e-04  6.6791898069949870e-04  6.3898603889117134e-04  6.0872736727519397e-04  5.7797185871995966e-04  5.4664175948914340e-04  5.1379411639858048e-04  4.8086256711351596e-04  4.4777720196614894e-04  4.1417183475203189e-04  3.8117161958973843e-04  3.4988058950915032e-04  3.1809618745767137e-04  2.8699062670462297e-04  2.5702269858474157e-04  2.2783780403847579e-04  2.0133288328941267e-04  1.7714405370216599e-04  1.5509804341238347e-04  1.3708668799322689e-04  1.2568864436226176e-04  1.2227027766278638e-04  1.3284101261115113e-04  1.6730760922591839e-04  2.4244905587969369e-04  3.9661278822689930e-04  6.8325575269669091e-04  2.1124470778435440e-03  3.6962280950831078e-03  6.4947691650227117e-03  1.1263161381920520e-02  1.9741835345535419e-02  3.4724170192468623e-02  6.0784311679810299e-02  1.0622317923791136e-01  1.8493101664043379e-01  3.2702575646568882e-01  5.7160170656560250e-01  1.0000000000000000e+00  1.0000000000000000e+00  1.0000000000000000e+00  1.0000000000000000e+00  1.0000000000000000e+00  1.0000000000000000e+00  1.0000000000000000e+00  1.0000000000000000e+00  1.0000000000000000e+00  1.0000000000000000e+00  1.0000000000000000e+00  1.0000000000000000e+00  1.0000000000000000e+00  1.0000000000000000e+00  1.0000000000000000e+00  1.0000000000000000e+00  1.0000000000000000e+00  1.0000000000000000e+00  1.0000000000000000e+00  1.0000000000000000e+00  1.0000000000000000e+00  1.0000000000000000e+00  1.0000000000000000e+00  1.0000000000000000e+00  1.0000000000000000e+00  1.0000000000000000e+00  1.0000000000000000e+00  9.9999999999999989e-01  1.0000000000000000e+00  1.0000000000000000e+00  1.0000000000000000e+00  1.0000000000000000e+00  9.9999999999999989e-01  1.0000000000000000e+00  1.0000000000000000e+00  1.0000000000000000e+00  1.0000000000000000e+00  1.0000000000000000e+00  1.0000000000000000e+00  1.0000000000000000e+00  1.0000000000000000e+00  1.0000000000000000e+00  1.0000000000000000e+00  1.0000000000000000e+00  1.0000000000000000e+00  1.0000000000000000e+00  1.0000000000000000e+00  1.0000000000000000e+00  1.0000000000000000e+00  1.0000000000000000e+00  1.0000000000000000e+00  1.0000000000000000e+00  1.0000000000000000e+00  1.0000000000000000e+00  1.0000000000000000e+00  1.0000000000000000e+00  1.0000000000000000e+00  1.0000000000000000e+00  1.0000000000000000e+00  9.9999999999999989e-01  1.0000000000000000e+00  1.0000000000000000e+00  1.0000000000000000e+00  1.0000000000000000e+00  1.0000000000000000e+00  1.0000000000000000e+00  1.0000000000000000e+00  1.0000000000000000e+00  1.0000000000000000e+00  1.0000000000000000e+00  1.0000000000000000e+00  1.0000000000000000e+00  1.0000000000000000e+00  1.0000000000000000e+00  1.0000000000000000e+00  1.0000000000000000e+00  1.0000000000000000e+00  1.0000000000000000e+00  1.0000000000000000e+00  1.0000000000000000e+00  1.0000000000000000e+00  1.0000000000000000e+00  1.0000000000000000e+00  1.0000000000000000e+00  1.0000000000000000e+00  1.0000000000000000e+00  1.0000000000000000e+00  1.0000000000000000e+00  1.0000000000000000e+00  1.0000000000000000e+00  1.0000000000000000e+00  1.0000000000000000e+00  1.0000000000000000e+00  1.0000000000000000e+00  1.0000000000000000e+00  1.0000000000000000e+00  1.0000000000000000e+00  1.0000000000000000e+00  1.0000000000000000e+00  1.0000000000000000e+00  1.0000000000000000e+00  1.0000000000000000e+00  1.0000000000000000e+00  1.0000000000000000e+00  9.9999999999999989e-01  1.0000000000000000e+00  1.0000000000000000e+00  1.0000000000000000e+00  1.0000000000000000e+00  1.0000000000000000e+00  5.7157114960304023e-01  3.2704095577138054e-01  1.8489431488222982e-01  1.0624107718161989e-01  6.0791934863817974e-02  3.4730091356282917e-02  1.9750072159989585e-02  1.1266042060808234e-02  6.4999801313408729e-03  3.7001116292198579e-03  2.1161667973605552e-03  6.8743340911104082e-04  4.0135070183203387e-04  2.4748338388364270e-04  1.7344411301555698e-04  1.3955507587204048e-04  1.2925402808188334e-04  1.3258285290586097e-04  1.4354264488681181e-04  1.6029210559251854e-04  1.8045027905363751e-04  2.0211206606824870e-04  2.2453216537550363e-04  2.4855370397170579e-04  2.7202225924839843e-04  2.9486252736413609e-04  3.1707566908482655e-04  3.3660873198320480e-04  3.5571457722355018e-04  3.7279880480731837e-04  3.8725490064792323e-04  3.9935705149943046e-04  4.0846729126521944e-04  4.1396106030951087e-04  4.1565861518699272e-04  4.1398956440942840e-04  4.0887443992057755e-04  4.0007354109205493e-04  3.8694829672990781e-04  3.7017700966235784e-04  3.5088345690256723e-04  3.2803425827225980e-04  3.0263492302265199e-04  2.7516197417911005e-04  2.4586313148498948e-04  2.1657678381618324e-04  1.8951508043872381e-04  1.6310369939439936e-04  1.3921433349912260e-04  1.2118601302580540e-04  1.0930559205730901e-04  1.1335190164061100e-04  1.2265482069993250e-04  1.2022250447062356e-03  1.2108745716044641e-03  1.2186951721017262e-03  1.2243625851617182e-03  1.2301284243222061e-03  1.2573749159162137e-03  1.2679344586996684e-03  1.2662685450339642e-03  1.2945683333625722e-03  1.3238090882922355e-03  1.3183837571117850e-03  1.3496323621070103e-03  1.3772401483518727e-03  1.3930981902897975e-03  1.4081381114514893e-03  1.4144440134029092e-03  1.4275916193606574e-03  1.4305104408243597e-03  1.4614029613837260e-03  1.4755700193860464e-03  1.4736394268946530e-03  1.4801573047240771e-03  1.4989459557339395e-03  1.5010623362851946e-03  1.4887764467244461e-03  1.4885107699168826e-03  1.4841693005348006e-03  1.4703145938190245e-03  1.4722188673213673e-03  1.4534869350555256e-03  1.4324463129981209e-03  1.4237057671110855e-03  1.4119481941534989e-03  1.3905455176874977e-03  1.3966650425212774e-03  1.4191140685966004e-03  1.4082508971249817e-03  1.4630340703341281e-03  1.5310609210876108e-03  1.6216523999425662e-03  1.8103598439707404e-03  2.0448666192009845e-03  2.3685665045923600e-03  2.8501840481712773e-03  3.4852499159374068e-03  4.3552684273133547e-03  5.5274687723933140e-03  7.0387005955443198e-03  8.9595621010919446e-03  1.1394731369935091e-02  1.4409586790144584e-02  1.8060970931659294e-02  2.2393670193398246e-02  2.7189582941206037e-02  3.2441438647706142e-02  3.8012645536519028e-02  4.3532860822258795e-02  4.8709952281052238e-02  5.3373192329076967e-02  5.7169222781153814e-02  5.9993694919374355e-02  6.1841123644106849e-02  6.2751951890715335e-02  6.2852174057639223e-02  6.2273101519290303e-02  6.1186750585527458e-02  5.9772163293426862e-02  5.8116083981350555e-02  5.6349773526616707e-02  5.4516444978297780e-02  5.2759986892369874e-02  5.1049838213406848e-02  4.9429851608693592e-02  4.7921072112099249e-02  4.6533207429946426e-02  4.5252593852787265e-02  4.4077773907664576e-02  4.3025137065435537e-02  4.2069094044152343e-02  4.1205655338315036e-02  4.0415425227237615e-02  3.9693493896242646e-02  3.9039927672206556e-02  3.8442496466748487e-02  3.7883746086494204e-02  3.7378274038870334e-02  3.6906899119353465e-02  3.6472145759989402e-02  3.6059716039743617e-02  3.5660526058673259e-02  3.5286169863488807e-02  3.4924761076034837e-02  3.4562796299996035e-02  3.4203499261861441e-02  3.3840637886880798e-02  3.3480154871023383e-02  3.3112920479592182e-02  3.2731617734628182e-02  3.2337016928811704e-02  3.1924310060836639e-02  3.1494247052564442e-02  3.1043645312847687e-02  3.0573527001910867e-02  3.0077018701429710e-02  2.9553738097446387e-02  2.9011251716305326e-02  2.8444395235427727e-02  2.7870348518999222e-02  2.7301667538252410e-02  2.6777031808470193e-02  2.6365188914619943e-02  1.2059336431586368e-03  1.2142741570821205e-03  1.2221556654661394e-03  1.2277765997796349e-03  1.2334725437081965e-03  1.2608670843943870e-03  1.2704968889562104e-03  1.2682592229528210e-03  1.2948935262475330e-03  1.3222579119099281e-03  1.3173289137400786e-03  1.3441331706504618e-03  1.3695445888360536e-03  1.3829113551770741e-03  1.3954435729321383e-03  1.3999359266420360e-03  1.4095578236215829e-03  1.4080332844054111e-03  1.4382180386406651e-03  1.4545667473606313e-03  1.4515207446850957e-03  1.4579499683249220e-03  1.4732589959662950e-03  1.4747515530317975e-03  1.4610096141142305e-03  1.4602894699627812e-03  1.4565701365008008e-03  1.4430712563098884e-03  1.4447093276961870e-03  1.4270150217524479e-03  1.4060257210666987e-03  1.3964104672168918e-03  1.3832840032420499e-03  1.3612266074847052e-03  1.3658436296541067e-03  1.3862171089985087e-03  1.3701118201231927e-03  1.4178811402851073e-03  1.4746736652047660e-03  1.5511658467772052e-03  1.7219587755157018e-03  1.9300081457566769e-03  2.2214828162342888e-03  2.6621968404499027e-03  3.2423847138736274e-03  4.0438867766012790e-03  5.1306344793390201e-03  6.5379696424630431e-03  8.3345980439699947e-03  1.0625177058662626e-02  1.3473561993867901e-02  1.6938516546899391e-02  2.1062316613639775e-02  2.5652640882147318e-02  3.0704217181777970e-02  3.6092399229550071e-02  4.1478274673418206e-02  4.6600190070220683e-02  5.1276763415430658e-02  5.5183325960363870e-02  5.8207517591331089e-02  6.0311099298413912e-02  6.1530160067217281e-02  6.1961717864018474e-02  6.1700845802682286e-02  6.0923232252073703e-02  5.9788051771403831e-02  5.8374815564235218e-02  5.6812009952163130e-02  5.5140041279933771e-02  5.3518387016868667e-02  5.1913562419108876e-02  5.0363015820185167e-02  4.8908577665601437e-02  4.7556490286389357e-02  4.6296004088852032e-02  4.5127750863195940e-02  4.4070349653410119e-02  4.3100684251782526e-02  4.2218841097867763e-02  4.1403539438588294e-02  4.0649316213472071e-02  3.9960463149676016e-02  3.9321572225253884e-02  3.8719218245231182e-02  3.8163711515499694e-02  3.7638342598412575e-02  3.7146947107803995e-02  3.6673161296042894e-02  3.6206417922944593e-02  3.5760259458139279e-02  3.5321691539663198e-02  3.4876628308137897e-02  3.4430035308007222e-02  3.3972661459453574e-02  3.3512832175164722e-02  3.3041442666784514e-02  3.2548813180971733e-02  3.2037946001438146e-02  3.1502395120174193e-02  3.0944059504087702e-02  3.0361986092141413e-02  2.9755374105180695e-02  2.9120432350839685e-02  2.8456784754173757e-02  2.7771672724358390e-02  2.7064443394036800e-02  2.6351152966684301e-02  2.5649833820026554e-02  2.5011133148674574e-02  2.4510253170623983e-02  7.5646804914221100e-01  5.6069586604432120e-01  3.9804225501523816e-01  2.8946036162204208e-01  2.1513755765889772e-01  1.6332583403862339e-01  1.2779459960007336e-01  1.0381260678095643e-01  8.6588078930572396e-02  7.4452627298928944e-02  6.5519269552405293e-02  5.8767314007980916e-02  5.3684380811462290e-02  4.9754589632805005e-02  4.6667909286073762e-02  4.4198872116431420e-02  4.2228993101443797e-02  4.0618066154390606e-02  3.9286192215987593e-02  3.8197431216024265e-02  3.7285173989709895e-02  3.6508731652538692e-02  3.5863472549978695e-02  3.5308814502988568e-02  3.4835158287429474e-02  3.4432544119221066e-02  3.4064551019835715e-02  3.3754769828581811e-02  3.3468892650666972e-02  3.3206263100711848e-02  3.2971722039642146e-02  3.2755021816458910e-02  3.2539691446401502e-02  3.2321765352789751e-02  3.2102874503702833e-02  3.1873403054839475e-02  3.1643928071033708e-02  3.1396313906695165e-02  3.1132372699260270e-02  3.0851196184261052e-02  3.0547622560545721e-02  3.0219786020074312e-02  2.9860368334269735e-02  2.9472516576238585e-02  2.9044261451164156e-02  2.8582723218815498e-02  2.8086359256608625e-02  2.7544784498209848e-02  2.6967916689772352e-02  2.6345930400569668e-02  2.5690432786658501e-02  2.5014605439490460e-02  2.4335022357285262e-02  2.3707560928066765e-02  2.3194016634464548e-02  7.5909915171100198e-03  1.8310851682399500e-04  3.3337558356089876e-02  4.0743350143343335e-02  2.4125124758154901e-02  8.6254117829248861e-04  2.6444385730705776e-04  4.3112920914219727e-02  3.6999433063132817e-02  1.8151191346627557e-02  2.0004159677021512e-03  1.1186055074909419e-04  3.7163923329742179e-02  4.1638422694463210e-02  6.8688058574920136e-03  1.8704398762903586e-04  4.3182366176807499e-02  2.8750718756463550e-02  2.8192695776620266e-04  7.6114382842439651e-03  4.0005085284655989e