<?xml version="1.0"?>
<VTKFile type="UnstructuredGrid"  version="0.1"  >
<UnstructuredGrid>
<Piece  NumberOfPoints="15540" NumberOfCells="30546">
<Points>
<DataArray  type="Float64"  NumberOfComponents="3"  format="ascii">0 0 0  -0.5 -0.5 0  0.5 -0.5 0  0.5 0 0  0.5 0.5 0  -0.5 0.5 0  -0.5 0.0001 0  -0.5 -0.0001 0  0.5 0.1 0  0.5 -0.1 0  -0.5 -0.1 0  -0.5 0.1 0  -0.4900000000000277 -0.5 0  -0.4800000000000555 -0.5 0  -0.4700000000000832 -0.5 0  -0.4600000000001109 -0.5 0  -0.4500000000001387 -0.5 0  -0.4400000000001664 -0.5 0  -0.4300000000001942 -0.5 0  -0.4200000000002219 -0.5 0  -0.4100000000002497 -0.5 0  -0.4000000000002774 -0.5 0  -0.3900000000003052 -0.5 0  -0.3800000000003328 -0.5 0  -0.3700000000003606 -0.5 0  -0.3600000000003883 -0.5 0  -0.3500000000004161 -0.5 0  -0.3400000000004438 -0.5 0  -0.3300000000004716 -0.5 0  -0.3200000000004993 -0.5 0  -0.3100000000005271 -0.5 0  -0.3000000000005548 -0.5 0  -0.2900000000005825 -0.5 0  -0.2800000000006103 -0.5 0  -0.2700000000006381 -0.5 0  -0.2600000000006658 -0.5 0  -0.2500000000006935 -0.5 0  -0.2400000000007212 -0.5 0  -0.230000000000749 -0.5 0  -0.2200000000007767 -0.5 0  -0.2100000000008044 -0.5 0  -0.2000000000008322 -0.5 0  -0.19000000000086 -0.5 0  -0.1800000000008877 -0.5 0  -0.1700000000009154 -0.5 0  -0.1600000000009431 -0.5 0  -0.1500000000009709 -0.5 0  -0.1400000000009986 -0.5 0  -0.1300000000010264 -0.5 0  -0.1200000000010541 -0.5 0  -0.1100000000010818 -0.5 0  -0.1000000000011096 -0.5 0  -0.09000000000113734 -0.5 0  -0.08000000000116503 -0.5 0  -0.07000000000119283 -0.5 0  -0.06000000000122058 -0.5 0  -0.05000000000124827 -0.5 0  -0.04000000000127607 -0.5 0  -0.03000000000130376 -0.5 0  -0.02000000000133151 -0.5 0  -0.01000000000135925 -0.5 0  -1.376121439022882e-12 -0.5 0  0.009999999998640763 -0.5 0  0.01999999999866864 -0.5 0  0.02999999999869629 -0.5 0  0.03999999999872406 -0.5 0  0.04999999999875182 -0.5 0  0.05999999999877947 -0.5 0  0.06999999999880724 -0.5 0  0.079999999998835 -0.5 0  0.08999999999886266 -0.5 0  0.09999999999889042 -0.5 0  0.1099999999989182 -0.5 0  0.1199999999989459 -0.5 0  0.1299999999989737 -0.5 0  0.1399999999990014 -0.5 0  0.1499999999990291 -0.5 0  0.1599999999990568 -0.5 0  0.1699999999990847 -0.5 0  0.1799999999991124 -0.5 0  0.1899999999991401 -0.5 0  0.1999999999991678 -0.5 0  0.2099999999991955 -0.5 0  0.2199999999992234 -0.5 0  0.2299999999992511 -0.5 0  0.2399999999992788 -0.5 0  0.2499999999993066 -0.5 0  0.2599999999993342 -0.5 0  0.269999999999362 -0.5 0  0.2799999999993897 -0.5 0  0.2899999999994175 -0.5 0  0.2999999999994452 -0.5 0  0.3099999999994729 -0.5 0  0.3199999999995007 -0.5 0  0.3299999999995284 -0.5 0  0.3399999999995562 -0.5 0  0.3499999999995839 -0.5 0  0.3599999999996116 -0.5 0  0.3699999999996393 -0.5 0  0.379999999999667 -0.5 0  0.3899999999996949 -0.5 0  0.3999999999997226 -0.5 0  0.4099999999997503 -0.5 0  0.419999999999778 -0.5 0  0.4299999999998058 -0.5 0  0.4399999999998336 -0.5 0  0.4499999999998613 -0.5 0  0.4599999999998891 -0.5 0  0.4699999999999167 -0.5 0  0.4799999999999445 -0.5 0  0.4899999999999722 -0.5 0  0.5 -0.4902110204681464 0  0.5 -0.4804459958734807 0  0.5 -0.4707048677450883 0  0.5 -0.4609875815766065 0  0.5 -0.4512940759251849 0  0.5 -0.4416242912883993 0  0.5 -0.4319781678689807 0  0.5 -0.4223556545383647 0  0.5 -0.4127566896324213 0  0.5 -0.4031812128200121 0  0.5 -0.3936291733057916 0  0.5 -0.3841005081172659 0  0.5 -0.3745951585781932 0  0.5 -0.3651130778999337 0  0.5 -0.3556541993788045 0  0.5 -0.3462184677228392 0  0.5 -0.3368058273705318 0  0.5 -0.3274162224888609 0  0.5 -0.3180495969712945 0  0.5 -0.3087058944357755 0  0.5 -0.299385058222682 0  0.5 -0.2900870313927414 0  0.5 -0.2808117567250807 0  0.5 -0.2715591844628491 0  0.5 -0.2623292564012653 0  0.5 -0.253121909553727 0  0.5 -0.2439371050851549 0  0.5 -0.2347747685524501 0  0.5 -0.2256348634421331 0  0.5 -0.2165173209784076 0  0.5 -0.207422087829958 0  0.5 -0.1983491207029381 0  0.5 -0.1892983550950482 0  0.5 -0.1802697378305253 0  0.5 -0.1712632154965152 0  0.5 -0.1622787344187354 0  0.5 -0.1533162406595534 0  0.5 -0.1443756800160514 0  0.5 -0.1354569980180493 0  0.5 -0.1265601399261414 0  0.5 -0.1176850622761093 0  0.5 -0.1088317009011999 0  0.5 -0.09166666666668973 0  0.5 -0.08333333333337943 0  0.5 -0.07500000000006915 0  0.5 -0.06666666666675886 0  0.5 -0.05833333333344858 0  0.5 -0.05000000000013693 0  0.5 -0.04166666666678191 0  0.5 -0.03333333333342643 0  0.5 -0.02500000000006916 0  0.5 -0.01666666666671188 0  0.5 -0.00833333333335548 0  0.5 0.008333333333318314 0  0.5 0.01666666666663358 0  0.5 0.02499999999994162 0  0.5 0.03333333333325101 0  0.5 0.04166666666655769 0  0.5 0.04999999999986843 0  0.5 0.05833333333322258 0  0.5 0.06666666666657715 0  0.5 0.07499999999993352 0  0.5 0.08333333333328992 0  0.5 0.09166666666664541 0  0.5 0.1088317009011616 0  0.5 0.1176850622760307 0  0.5 0.1265601399260203 0  0.5 0.1354569980178909 0  0.5 0.1443756800158549 0  0.5 0.153316240659315 0  0.5 0.1622787344184454 0  0.5 0.1712632154961752 0  0.5 0.1802697378301332 0  0.5 0.1892983550946039 0  0.5 0.1983491207024433 0  0.5 0.2074220878294123 0  0.5 0.216517320977811 0  0.5 0.2256348634414833 0  0.5 0.2347747685517479 0  0.5 0.2439371050844009 0  0.5 0.2531219095529224 0  0.5 0.2623292564004089 0  0.5 0.2715591844619371 0  0.5 0.2808117567241139 0  0.5 0.290087031391723 0  0.5 0.2993850582216101 0  0.5 0.3087058944347426 0  0.5 0.3180495969703129 0  0.5 0.3274162224879299 0  0.5 0.3368058273696494 0  0.5 0.3462184677220051 0  0.5 0.3556541993780186 0  0.5 0.3651130778991989 0  0.5 0.3745951585775107 0  0.5 0.3841005081166359 0  0.5 0.3936291733052134 0  0.5 0.4031812128194852 0  0.5 0.412756689631945 0  0.5 0.4223556545379392 0  0.5 0.431978167868607 0  0.5 0.4416242912880781 0  0.5 0.4512940759249164 0  0.5 0.4609875815763912 0  0.5 0.4707048677449264 0  0.5 0.4804459958733726 0  0.5 0.4902110204680924 0  0.4900000000000277 0.5 0  0.4800000000000555 0.5 0  0.4700000000000832 0.5 0  0.4600000000001109 0.5 0  0.4500000000001387 0.5 0  0.4400000000001664 0.5 0  0.4300000000001942 0.5 0  0.4200000000002219 0.5 0  0.4100000000002497 0.5 0  0.4000000000002774 0.5 0  0.3900000000003052 0.5 0  0.3800000000003328 0.5 0  0.3700000000003606 0.5 0  0.3600000000003883 0.5 0  0.3500000000004161 0.5 0  0.3400000000004438 0.5 0  0.3300000000004716 0.5 0  0.3200000000004993 0.5 0  0.3100000000005271 0.5 0  0.3000000000005548 0.5 0  0.2900000000005825 0.5 0  0.2800000000006103 0.5 0  0.2700000000006381 0.5 0  0.2600000000006658 0.5 0  0.2500000000006935 0.5 0  0.2400000000007212 0.5 0  0.230000000000749 0.5 0  0.2200000000007767 0.5 0  0.2100000000008044 0.5 0  0.2000000000008322 0.5 0  0.19000000000086 0.5 0  0.1800000000008877 0.5 0  0.1700000000009154 0.5 0  0.1600000000009431 0.5 0  0.1500000000009709 0.5 0  0.1400000000009986 0.5 0  0.1300000000010264 0.5 0  0.1200000000010541 0.5 0  0.1100000000010818 0.5 0  0.1000000000011096 0.5 0  0.09000000000113734 0.5 0  0.08000000000116503 0.5 0  0.07000000000119283 0.5 0  0.06000000000122058 0.5 0  0.05000000000124827 0.5 0  0.04000000000127607 0.5 0  0.03000000000130376 0.5 0  0.02000000000133151 0.5 0  0.01000000000135925 0.5 0  1.376121439022882e-12 0.5 0  -0.009999999998640763 0.5 0  -0.01999999999866864 0.5 0  -0.02999999999869629 0.5 0  -0.03999999999872406 0.5 0  -0.04999999999875182 0.5 0  -0.05999999999877947 0.5 0  -0.06999999999880724 0.5 0  -0.079999999998835 0.5 0  -0.08999999999886266 0.5 0  -0.09999999999889042 0.5 0  -0.1099999999989182 0.5 0  -0.1199999999989459 0.5 0  -0.1299999999989737 0.5 0  -0.1399999999990014 0.5 0  -0.1499999999990291 0.5 0  -0.1599999999990568 0.5 0  -0.1699999999990847 0.5 0  -0.1799999999991124 0.5 0  -0.1899999999991401 0.5 0  -0.1999999999991678 0.5 0  -0.2099999999991955 0.5 0  -0.2199999999992234 0.5 0  -0.2299999999992511 0.5 0  -0.2399999999992788 0.5 0  -0.2499999999993066 0.5 0  -0.2599999999993342 0.5 0  -0.269999999999362 0.5 0  -0.2799999999993897 0.5 0  -0.2899999999994175 0.5 0  -0.2999999999994452 0.5 0  -0.3099999999994729 0.5 0  -0.3199999999995007 0.5 0  -0.3299999999995284 0.5 0  -0.3399999999995562 0.5 0  -0.3499999999995839 0.5 0  -0.3599999999996116 0.5 0  -0.3699999999996393 0.5 0  -0.379999999999667 0.5 0  -0.3899999999996949 0.5 0  -0.3999999999997226 0.5 0  -0.4099999999997503 0.5 0  -0.419999999999778 0.5 0  -0.4299999999998058 0.5 0  -0.4399999999998336 0.5 0  -0.4499999999998613 0.5 0  -0.4599999999998891 0.5 0  -0.4699999999999167 0.5 0  -0.4799999999999445 0.5 0  -0.4899999999999722 0.5 0  -0.5 0.4902110204681464 0  -0.5 0.4804459958734807 0  -0.5 0.4707048677450883 0  -0.5 0.4609875815766065 0  -0.5 0.4512940759251849 0  -0.5 0.4416242912883993 0  -0.5 0.4319781678689807 0  -0.5 0.4223556545383647 0  -0.5 0.4127566896324213 0  -0.5 0.4031812128200121 0  -0.5 0.3936291733057916 0  -0.5 0.3841005081172659 0  -0.5 0.3745951585781932 0  -0.5 0.3651130778999337 0  -0.5 0.3556541993788045 0  -0.5 0.3462184677228392 0  -0.5 0.3368058273705318 0  -0.5 0.3274162224888609 0  -0.5 0.3180495969712945 0  -0.5 0.3087058944357755 0  -0.5 0.299385058222682 0  -0.5 0.2900870313927414 0  -0.5 0.2808117567250807 0  -0.5 0.2715591844628491 0  -0.5 0.2623292564012653 0  -0.5 0.253121909553727 0  -0.5 0.2439371050851549 0  -0.5 0.2347747685524501 0  -0.5 0.2256348634421331 0  -0.5 0.2165173209784076 0  -0.5 0.207422087829958 0  -0.5 0.1983491207029381 0  -0.5 0.1892983550950482 0  -0.5 0.1802697378305253 0  -0.5 0.1712632154965152 0  -0.5 0.1622787344187354 0  -0.5 0.1533162406595534 0  -0.5 0.1443756800160514 0  -0.5 0.1354569980180493 0  -0.5 0.1265601399261414 0  -0.5 0.1176850622761093 0  -0.5 0.1088317009011999 0  -0.5 0.09167500000001694 0  -0.5 0.08335000000003931 0  -0.5 0.07502500000006167 0  -0.5 0.06670000000008947 0  -0.5 0.05837500000011001 0  -0.5 0.0500500000001328 0  -0.5 0.0417250000001127 0  -0.5 0.03340000000008944 0  -0.5 0.02507500000006573 0  -0.5 0.01675000000004653 0  -0.5 0.008425000000027341 
[...]
<PointData  Scalars="f_25"> 
<DataArray  type="Float64"  Name="f_25"  format="ascii">1.0000000000000000e+00  2.9172997568765065e-09  4.7205095733099055e-06  9.9400963678033738e-01  2.0691338516041521e-06  2.9269533496499393e-08  1.0000000000000000e+00  1.0000000000000000e+00  2.0793949821848101e-03  1.1726094036187498e-03  1.1821043017683421e-03  1.1815699889490706e-03  3.2508600414078737e-09  4.0500930248037888e-09  5.0966738230694737e-09  6.2426998330455382e-09  7.3369102977260840e-09  8.3964184529900707e-09  9.4178014673644491e-09  1.0479610378823678e-08  1.1504187492490277e-08  1.2562843940196517e-08  1.3664839774780169e-08  1.4905218736986811e-08  1.6220097667533484e-08  1.7654440954089119e-08  1.9251844758731036e-08  2.1052661480520197e-08  2.3159550971486346e-08  2.5438083411047013e-08  2.7997233456528137e-08  3.0889746709576526e-08  3.3978529700199430e-08  3.7384360923486903e-08  4.1226816955550497e-08  4.5256090683033314e-08  4.9708414771019513e-08  5.4533929393343867e-08  5.9743273858921192e-08  6.5490099217898234e-08  7.1477649196113377e-08  7.8084942534323923e-08  8.5044087226623283e-08  9.2494190658090160e-08  1.0041040616868125e-07  1.0890481792332804e-07  1.1788770503313571e-07  1.2732369256295793e-07  1.3730072902866377e-07  1.4785320795570357e-07  1.5891495323252453e-07  1.7040702203902405e-07  1.8251049431258846e-07  1.9518381394536259e-07  2.0819797628475642e-07  2.2187156089991161e-07  2.3591837771653270e-07  2.5065910767515454e-07  2.6564646083474289e-07  2.8111282979537368e-07  2.9716238890805524e-07  3.1351801392267580e-07  3.3030364466629991e-07  3.4749120378028444e-07  3.6524363096167318e-07  3.8336486807033549e-07  4.0152074117549527e-07  4.2010531103272491e-07  4.3909768485908985e-07  4.5850836363670158e-07  4.7818168338087469e-07  4.9803959456779307e-07  5.1860695282768345e-07  5.3957989678539469e-07  5.6044276043818927e-07  5.8186809288749600e-07  6.0381087813147509e-07  6.2581211502279145e-07  6.4865566443488380e-07  6.7165022902484246e-07  6.9516946396557310e-07  7.1943122685400999e-07  7.4434986156357532e-07  7.6999915929099135e-07  7.9632962925937294e-07  8.2311846870923803e-07  8.5099053994676332e-07  8.8010586989571358e-07  9.1010997249746430e-07  9.4163216486271927e-07  9.7507816000729249e-07  1.0098232937364957e-06  1.0471568512636911e-06  1.0862003338680389e-06  1.1277138909137220e-06  1.1725809431143592e-06  1.2216474287438438e-06  1.2745847364363765e-06  1.3328838192290839e-06  1.3988739970636051e-06  1.4719593517425494e-06  1.5563125238544829e-06  1.6534086345666499e-06  1.7715003246348239e-06  1.9107328165823591e-06  2.0862265628455638e-06  2.3111298029768908e-06  2.6069316707814907e-06  2.9948250056286548e-06  3.5035128441194257e-06  4.1605926829361077e-06  4.3739314115657107e-06  3.7588563828018167e-06  3.2788457369596093e-06  2.9039719295704375e-06  2.6356555881162526e-06  2.4381775340554801e-06  2.2929043837122569e-06  2.1813657172070793e-06  2.0942675848223590e-06  2.0264293711753059e-06  1.9713579482127525e-06  1.9277982301682670e-06  1.8921045512981456e-06  1.8640113919732199e-06  1.8405447559825250e-06  1.8212884233012274e-06  1.8060810590582966e-06  1.7936519544836320e-06  1.7834848411743261e-06  1.7759513819579051e-06  1.7703132849727734e-06  1.7672016813057970e-06  1.7668352111531466e-06  1.7702915159161409e-06  1.7796363609800472e-06  1.7985161825165682e-06  1.8343419760317673e-06  1.8971182190921493e-06  2.0147838363573403e-06  2.2303011037197247e-06  2.6186354401195600e-06  3.3497269719756435e-06  4.6600102220862020e-06  7.0692105860519486e-06  1.1353287272423681e-05  1.9492271119989441e-05  3.4320502405826682e-05  6.1554839132316422e-05  1.1051315410828096e-04  1.9784473655142708e-04  3.5995004504564782e-04  6.5221523593611606e-04  2.0740216085071779e-03  3.6524160502978751e-03  6.4402587191347551e-03  1.1181544609993750e-02  1.9582634195173684e-02  3.4375083541008170e-02  6.0133099891954860e-02  1.0519341045258507e-01  1.8347259086276527e-01  3.2569861053449750e-01  5.7186420941622884e-01  9.8304242567010236e-01  5.7266872361540710e-01  3.3012059038494845e-01  1.8486415849397556e-01  1.0537153426436191e-01  6.0267196398936060e-02  3.4372510010726616e-02  1.9630430073382686e-02  1.1153844502303030e-02  6.4564518817455787e-03  3.6770742973905976e-03  1.1557279602980024e-03  6.3729649092976915e-04  3.4981247094767790e-04  1.9487771093939124e-04  1.0800171381299776e-04  5.9671000355346684e-05  3.3363893533678138e-05  1.8922003723089270e-05  1.1335487021935097e-05  7.0781364081757373e-06  4.7635777259072053e-06  3.4797614647099607e-06  2.8012566597745809e-06  2.4275817077976675e-06  2.2265776813155386e-06  2.1206640827468563e-06  2.0617509412694358e-06  2.0313567311704700e-06  2.0163093865440527e-06  2.0098264299634981e-06  2.0079588393114578e-06  2.0095841510093673e-06  2.0112460240628634e-06  2.0153418844945236e-06  2.0187368648516549e-06  2.0228388160363209e-06  2.0280737635454917e-06  2.0314442043036219e-06  2.0355027179220159e-06  2.0398743947502669e-06  2.0440047351121283e-06  2.0476535571362434e-06  2.0509117127740804e-06  2.0543129429901969e-06  2.0573869572716524e-06  2.0601531656603749e-06  2.0623179010501212e-06  2.0645688399445225e-06  2.0661285936839701e-06  2.0684703010257823e-06  2.0679863470766892e-06  2.0689540288940832e-06  2.0551649627321706e-06  2.0257830388907642e-06  1.9886708784712783e-06  1.9480244600809522e-06  1.9057250006889367e-06  1.8634587856733608e-06  1.8220392580633299e-06  1.7817146456413732e-06  1.7417181283120360e-06  1.7028616236105535e-06  1.6650597766674075e-06  1.6283986994437019e-06  1.5920648122308843e-06  1.5570526621065564e-06  1.5227426866743556e-06  1.4889371257051981e-06  1.4559583370008469e-06  1.4236019592676300e-06  1.3919462958282221e-06  1.3603388529838589e-06  1.3295547674967002e-06  1.2988620556008139e-06  1.2687403732183006e-06  1.2383524039446362e-06  1.2084837415404012e-06  1.1789446066440808e-06  1.1490405115132042e-06  1.1193537104341669e-06  1.0889739439359698e-06  1.0590569357984301e-06  1.0288603172352655e-06  9.9854955766328158e-07  9.6779317449869370e-07  9.3685365344320892e-07  9.0576360144648533e-07  8.7450948730531192e-07  8.4306153535789306e-07  8.1143336767559379e-07  7.7950941816932631e-07  7.4698321379689399e-07  7.1482975885582449e-07  6.8261840138951888e-07  6.5053509849486895e-07  6.1871268033611691e-07  5.8669989521488619e-07  5.5540316332454972e-07  5.2389038492549904e-07  4.9289998387362599e-07  4.6264899105869988e-07  4.3314900632291191e-07  4.0443183878903488e-07  3.7602142410619467e-07  3.4907450290455158e-07  3.2274325340103626e-07  2.9731912049052806e-07  2.7329308543359479e-07  2.5003344930458234e-07  2.2800271850061925e-07  2.0722404847352283e-07  1.8749208186853183e-07  1.6916861613312164e-07  1.5182306929016448e-07  1.3577674410280906e-07  1.2082949984793291e-07  1.0704551257172984e-07  9.4313208737313903e-08  8.2529849051673543e-08  7.1967919268997398e-08  6.2200936842130355e-08  5.3434218283828522e-08  4.5499400531879759e-08  3.8434549638578336e-08  3.2074648264150614e-08  2.6512737531780654e-08  2.1547797125306130e-08  1.7239550020188898e-08  1.3571618484993991e-08  1.0392200967585810e-08  7.7591542147267445e-09  5.5789984225906708e-09  3.8593490853740352e-09  2.5761477916172451e-09  1.6933492097158152e-09  1.2095557045312025e-09  1.0840256184562847e-09  1.2956940609275284e-09  1.8230147197351612e-09  2.6347554700168885e-09  3.7149547563178977e-09  5.0335523658366584e-09  6.6272255547005782e-09  8.4870530599769774e-09  1.0658559738669350e-08  1.3090396741480994e-08  1.5872117143246141e-08  1.8887417460729728e-08  2.2153572943340888e-08  2.5331058681500358e-08  2.7952271905518466e-08  2.9272769511250488e-08  2.9176683181634250e-08  2.9119845479030688e-08  2.8790402286535282e-08  2.8535154101409047e-08  2.8206363671487266e-08  2.7790138870320332e-08  2.7363954471919832e-08  2.6818301265918631e-08  2.6281117888816232e-08  2.5684703686467714e-08  2.5037924469106918e-08  2.4323659830852408e-08  2.3566173074236823e-08  2.2782138013090821e-08  2.1972644517578529e-08  2.1157400828498004e-08  2.0345865808346232e-08  1.9598929173640917e-08  1.9043407165328005e-08  1.8840568323901741e-08  1.9282807316175429e-08  2.1019891280417276e-08  2.5186886440547334e-08  3.3778990820850667e-08  5.0646097435835446e-08  8.2671242154044910e-08  1.4346435734387419e-07  2.5713118097131536e-07  4.6756357278302846e-07  8.5643755767157520e-07  1.5634268419605057e-06  2.8754024864323438e-06  5.2986849761390298e-06  9.6274032930916993e-06  1.7808806911293235e-05  3.2581804517033368e-05  5.9490752697150493e-05  1.0813461950173021e-04  1.9581983648825306e-04  3.5979744283589309e-04  6.5481821287100451e-04  2.0961167222321238e-03  3.6840476393805882e-03  6.4858482060277268e-03  1.1256665047211449e-02  1.9737252624089020e-02  3.4720941364843536e-02  6.0782049373700048e-02  1.0622165164450503e-01  1.8493003604854527e-01  3.2702515527118059e-01  5.7160142370088518e-01  1.0000000000000000e+00  1.0000000000000000e+00  1.0000000000000000e+00  1.0000000000000000e+00  9.9999999999999989e-01  9.9999999999999989e-01  1.0000000000000000e+00  1.0000000000000000e+00  1.0000000000000000e+00  1.0000000000000000e+00  1.0000000000000000e+00  1.0000000000000000e+00  1.0000000000000000e+00  1.0000000000000000e+00  1.0000000000000000e+00  1.0000000000000000e+00  1.0000000000000000e+00  1.0000000000000000e+00  1.0000000000000000e+00  1.0000000000000000e+00  1.0000000000000000e+00  1.0000000000000000e+00  1.0000000000000000e+00  1.0000000000000000e+00  1.0000000000000000e+00  1.0000000000000000e+00  1.0000000000000000e+00  1.0000000000000000e+00  1.0000000000000000e+00  1.0000000000000000e+00  1.0000000000000000e+00  1.0000000000000000e+00  1.0000000000000000e+00  1.0000000000000000e+00  1.0000000000000000e+00  1.0000000000000000e+00  1.0000000000000000e+00  1.0000000000000000e+00  1.0000000000000000e+00  1.0000000000000000e+00  1.0000000000000000e+00  1.0000000000000000e+00  1.0000000000000000e+00  1.0000000000000000e+00  1.0000000000000000e+00  1.0000000000000000e+00  1.0000000000000000e+00  1.0000000000000000e+00  1.0000000000000000e+00  1.0000000000000000e+00  9.9999999999999989e-01  1.0000000000000000e+00  1.0000000000000000e+00  1.0000000000000000e+00  1.0000000000000000e+00  1.0000000000000000e+00  1.0000000000000000e+00  1.0000000000000000e+00  1.0000000000000000e+00  1.0000000000000000e+00  1.0000000000000000e+00  1.0000000000000000e+00  1.0000000000000000e+00  1.0000000000000000e+00  9.9999999999999989e-01  1.0000000000000000e+00  1.0000000000000000e+00  1.0000000000000000e+00  1.0000000000000000e+00  1.0000000000000000e+00  1.0000000000000000e+00  1.0000000000000000e+00  1.0000000000000000e+00  1.0000000000000000e+00  1.0000000000000000e+00  1.0000000000000000e+00  1.0000000000000000e+00  1.0000000000000000e+00  1.0000000000000000e+00  1.0000000000000000e+00  1.0000000000000000e+00  1.0000000000000000e+00  1.0000000000000000e+00  1.0000000000000000e+00  1.0000000000000000e+00  1.0000000000000000e+00  1.0000000000000000e+00  1.0000000000000000e+00  1.0000000000000000e+00  1.0000000000000000e+00  1.0000000000000000e+00  1.0000000000000000e+00  1.0000000000000000e+00  1.0000000000000000e+00  1.0000000000000000e+00  1.0000000000000000e+00  1.0000000000000000e+00  9.9999999999999989e-01  1.0000000000000000e+00  1.0000000000000000e+00  1.0000000000000000e+00  1.0000000000000000e+00  1.0000000000000000e+00  1.0000000000000000e+00  1.0000000000000000e+00  9.9999999999999989e-01  1.0000000000000000e+00  1.0000000000000000e+00  1.0000000000000000e+00  1.0000000000000000e+00  5.7157081540988075e-01  3.2704024579116620e-01  1.8489315726875216e-01  1.0623927490842029e-01  6.0789268539042228e-02  3.4726290685252778e-02  1.9744685445332855e-02  1.1258434819463646e-02  6.4895804320244050e-03  3.6859956439030746e-03  2.0973562867948798e-03  6.5513260544062364e-04  3.5991751079613994e-04  1.9537226348256712e-04  1.0819572157984797e-04  5.9558141156423865e-05  3.2620110983074858e-05  1.7824400524849158e-05  9.6375653897949061e-06  5.3018920221980872e-06  2.8765861608628071e-06  1.5643060700383454e-06  8.5711147691207241e-07  4.6804093881215035e-07  2.5720213255950984e-07  1.4320937829183095e-07  8.2104869092662368e-08  4.9731485039581800e-08  3.2476838345096160e-08  2.3414096611755197e-08  1.8716011175082200e-08  1.6380881785945736e-08  1.5253839720823943e-08  1.4699272418335040e-08  1.4399288249497377e-08  1.4199487121813282e-08  1.3993140479951409e-08  1.3725554209150093e-08  1.3350057601275328e-08  1.2868826267271928e-08  1.2308357342335727e-08  1.1629217505036434e-08  1.0855468567563066e-08  9.9989062455008453e-09  9.0606699446433114e-09  8.0964910111133894e-09  7.1525048317816346e-09  6.1856931025219700e-09  5.2322857513026310e-09  4.3802594273384608e-09  3.6304758693885941e-09  3.2426954074435764e-09  2.9772438220166936e-09  1.1789207869077412e-03  1.1823899916023183e-03  1.1825383130485917e-03  1.1783928393509448e-03  1.1725508244499945e-03  1.1865530153344155e-03  1.1823457545077731e-03  1.1649300763080033e-03  1.1761318571790094e-03  1.1877977430263477e-03  1.1644105671736846e-03  1.1772166162065082e-03  1.1866820965079270e-03  1.1848128863068052e-03  1.1827304917801833e-03  1.1728115794129952e-03  1.1708321930060080e-03  1.1599290551464606e-03  1.1782012672046764e-03  1.1818646774794182e-03  1.1710707297569391e-03  1.1707919097734539e-03  1.1852198356374661e-03  1.1857361204332126e-03  1.1735600453681961e-03  1.1765886165316106e-03  1.1783813055482118e-03  1.1720883519980912e-03  1.1845717156665323e-03  1.1782029618426413e-03  1.1702501175709574e-03  1.1758033327731595e-03  1.1763686048685512e-03  1.1653885732328868e-03  1.1765464258988757e-03  1.1925464372271328e-03  1.1657479885364393e-03  1.1823832721706068e-03  1.1817514345932288e-03  1.1674915355068247e-03  1.1922159459064926e-03  1.1867482732651655e-03  1.1722487339310488e-03  1.1877148821225288e-03  1.1775694140194579e-03  1.1859325145945714e-03  1.2153411898680278e-03  1.2374716296169980e-03  1.2536530815158073e-03  1.3064806823716714e-03  1.3623543132166968e-03  1.4179402387794039e-03  1.5274958963710998e-03  1.6155706993808217e-03  1.7068719317656633e-03  1.8212705229681781e-03  1.8982491204785372e-03  1.9451138714495530e-03  2.0396413148804334e-03  2.0670011369273338e-03  2.0762318857740921e-03  2.1014078998283733e-03  2.0639619586496436e-03  2.0799123354490806e-03  2.0792716815774348e-03  2.0736812529239066e-03  2.0513460894629890e-03  2.0139909282958289e-03  2.0420307886918191e-03  2.0465918620625433e-03  2.0341035914851311e-03  2.0183944300367442e-03  2.0209201361412400e-03  2.0148948567445500e-03  1.9817378829599655e-03  1.9982525475549110e-03  1.9873202482694440e-03  1.9675270133113791e-03  1.9864887698288775e-03  1.9742196912390236e-03  1.9600117672595994e-03  1.9834640617898453e-03  1.9933376020993846e-03  1.9732742105904519e-03  1.9663863989452766e-03  2.0158435404040212e-03  2.0093833506213861e-03  2.0113538503624281e-03  2.0114390179028158e-03  1.9851205141408279e-03  2.0073349692658832e-03  2.0240869226152555e-03  2.0245690667462161e-03  2.0255012055646246e-03  1.9947467741127239e-03  2.0237310437266885e-03  2.0400037708486279e-03  2.0495589877277042e-03  2.0392270622505630e-03  2.0444746615613141e-03  2.0567327221162521e-03  2.0684311588136627e-03  2.0698111790221053e-03  2.0832494810911831e-03  2.0934823131561974e-03  2.0827912785598788e-03  2.0881051870321257e-03  2.0833222633045859e-03  2.0643876086410043e-03  2.0935573625364364e-03  2.1074810914937544e-03  1.1794957159973990e-03  1.1825748673949424e-03  1.1827086778197866e-03  1.1785095991994165e-03  1.1727021990383282e-03  1.1871314692963925e-03  1.1825203455072132e-03  1.1653084018647686e-03  1.1759480331888182e-03  1.1871434636468827e-03  1.1659262853103453e-03  1.1762325045926514e-03  1.1856544456270283e-03  1.1836540047575003e-03  1.1815011640405194e-03  1.1721882753862431e-03  1.1690846006265181e-03  1.1560886781163844e-03  1.1758550279861379e-03  1.1836987634928689e-03  1.1735556322039166e-03  1.1746584331061977e-03  1.1869534423233465e-03  1.1876889872228292e-03  1.1745511460013640e-03  1.1772784213466745e-03  1.1795198597977232e-03  1.1732290870399556e-03  1.1848494232026194e-03  1.1787084314266007e-03  1.1700902963603520e-03  1.1742600579478192e-03  1.1733554220892334e-03  1.1623225137552891e-03  1.1733697581305783e-03  1.1899327506241372e-03  1.1625923969898078e-03  1.1791191441793915e-03  1.1773980753552341e-03  1.1627106036425322e-03  1.1881455601020156e-03  1.1816333112131476e-03  1.1669808999506014e-03  1.1812602030115700e-03  1.1666145066606649e-03  1.1665411703088103e-03  1.1815544353097924e-03  1.1827529769623943e-03  1.1676569545739930e-03  1.1770756432356350e-03  1.1773297693284891e-03  1.1600987978725062e-03  1.1784863366297762e-03  1.1755283341114710e-03  1.1680300247101606e-03  1.1771456357889233e-03  1.1731454121296052e-03  1.1575720538334665e-03  1.1793219400131484e-03  1.1748289149816303e-03  1.1672933990961554e-03  1.1769463576645281e-03  1.1556170180699863e-03  1.1662323679583948e-03  1.1689626362950494e-03  1.1691150395670583e-03  1.1602118393425447e-03  1.1434733883223084e-03  1.1642700762365527e-03  1.1729022377656286e-03  1.1714970663277626e-03  1.1660380198951212e-03  1.1738111843842562e-03  1.1759538655432384e-03  1.1623152759835658e-03  1.1774953380956988e-03  1.1760601041088292e-03  1.1680616703936826e-03  1.1812870183344031e-03  1.1737031249861184e-03  1.1627200684016601e-03  1.1727957902943284e-03  1.1738390061601513e-03  1.1594925875546712e-03  1.1489139031678928e-03  1.1734066628093368e-03  1.1669626730669604e-03  1.1674304575306493e-03  1.1686434204562662e-03  1.1549222540752279e-03  1.1685403275592408e-03  1.1782821017848942e-03  1.1762406451804148e-03  1.1723465263928110e-03  1.1506561567562082e-03  1.1647056670946406e-03  1.1720653624328905e-03  1.1762208605263587e-03  1.1676506913907427e-03  1.1673429040413175e-03  1.1697120094934642e-03  1.1718789257624141e-03  1.1694709843334430e-03  1.1745748079085392e-03  1.1791047866311505e-03  1.1731719751535599e-03  1.1752429552171087e-03  1.1732302496026861e-03  1.1620481441720206e-03  1.1795501610676559e-03  1.1892265279765440e-03  9.9096546682035269e-01  9.9718905670396785e-01  9.9242729251287798e-01  9.9402814964479125e-01  9.9484762105718505e-01  9.9423705940268836e-01  9.9476546911653829e-01  9.9520716905518114e-01  9.9387477398634927e-01  9.9441559680318403e-01  9.9292663027681294e-01  9.9654584863370477e-01  9.9345876168284608e-01  9.9542029811739019e-01  9.9479426791032788e-01  9.9532369590431824e-01  9.9516457170973971e-01  9.9507303775315759e-01  9.9532944885645558e-01  9.9535683847426837e-01  9.9546579720319528e-01  9.9554782544427689e-01  9.9566145118615335e-01  9.9599577652410909e-01  9.9597540791478956e-01  9.9395809647162303e-01  9.9780831674489634e-01  9.9449560256358105e-01  9.9614219635585666e-01  9.9473880359304168e-01  9.9387691337713913e-01  9.9396054248688903e-01  9.9483279863159624e-01  9.9613992111607141e-01  9.9445504269078544e-01  9.9802505163406674e-01  9.9404668339091218e-01  9.9400166728950234e-01  9.9751091773930423e-01  9.9340231912037968e-01  9.9440110193585318e-01  9.9412231361575221e-01  9.9550598307727911e-01  9.9508538546623748e-01  9.9459235921007583e-01  9.9462448024650774e-01  9.9365064720874019e-01  9.9447504170866019e-01  9.9505514741525747e-01  9.9435213637236997e-01  9.9501158856462468e-01  9.9430440269247455e-01  9.9509866973518946e-01  9.9306607009002568e-01  9.9585839729945091e-01  2.1706134894699105e-07  8.0538355677547984e-09  9.1255118431187574e-07  1.3627488580305934e-06  1.1179185136747535e-06  3.2329737661961752e-07  3.5481081363989228e-07  1.7698633943045898e-06  1.1191806018175247e-06  5.0266207951178107e-07  5.6675746133936948e-08  3.8370634134079362e-09  2.6706957702256731e-06  1.6252528397664950e-06  1.7693795010116268e-06  1.5124982366092781e-06  3.8736928598407483e-06  8.1801992875459721e-07  8.0812236813845665e-09  2.1140681069187751e-07  5.5766382707798567e