<?xml version="1.0"?>
<VTKFile type="UnstructuredGrid"  version="0.1"  >
<UnstructuredGrid>
<Piece  NumberOfPoints="15540" NumberOfCells="30546">
<Points>
<DataArray  type="Float64"  NumberOfComponents="3"  format="ascii">0 0 0  -0.5 -0.5 0  0.5 -0.5 0  0.5 0 0  0.5 0.5 0  -0.5 0.5 0  -0.5 0.0001 0  -0.5 -0.0001 0  0.5 0.1 0  0.5 -0.1 0  -0.5 -0.1 0  -0.5 0.1 0  -0.4900000000000277 -0.5 0  -0.4800000000000555 -0.5 0  -0.4700000000000832 -0.5 0  -0.4600000000001109 -0.5 0  -0.4500000000001387 -0.5 0  -0.4400000000001664 -0.5 0  -0.4300000000001942 -0.5 0  -0.4200000000002219 -0.5 0  -0.4100000000002497 -0.5 0  -0.4000000000002774 -0.5 0  -0.3900000000003052 -0.5 0  -0.3800000000003328 -0.5 0  -0.3700000000003606 -0.5 0  -0.3600000000003883 -0.5 0  -0.3500000000004161 -0.5 0  -0.3400000000004438 -0.5 0  -0.3300000000004716 -0.5 0  -0.3200000000004993 -0.5 0  -0.3100000000005271 -0.5 0  -0.3000000000005548 -0.5 0  -0.2900000000005825 -0.5 0  -0.2800000000006103 -0.5 0  -0.2700000000006381 -0.5 0  -0.2600000000006658 -0.5 0  -0.2500000000006935 -0.5 0  -0.2400000000007212 -0.5 0  -0.230000000000749 -0.5 0  -0.2200000000007767 -0.5 0  -0.2100000000008044 -0.5 0  -0.2000000000008322 -0.5 0  -0.19000000000086 -0.5 0  -0.1800000000008877 -0.5 0  -0.1700000000009154 -0.5 0  -0.1600000000009431 -0.5 0  -0.1500000000009709 -0.5 0  -0.1400000000009986 -0.5 0  -0.1300000000010264 -0.5 0  -0.1200000000010541 -0.5 0  -0.1100000000010818 -0.5 0  -0.1000000000011096 -0.5 0  -0.09000000000113734 -0.5 0  -0.08000000000116503 -0.5 0  -0.07000000000119283 -0.5 0  -0.06000000000122058 -0.5 0  -0.05000000000124827 -0.5 0  -0.04000000000127607 -0.5 0  -0.03000000000130376 -0.5 0  -0.02000000000133151 -0.5 0  -0.01000000000135925 -0.5 0  -1.376121439022882e-12 -0.5 0  0.009999999998640763 -0.5 0  0.01999999999866864 -0.5 0  0.02999999999869629 -0.5 0  0.03999999999872406 -0.5 0  0.04999999999875182 -0.5 0  0.05999999999877947 -0.5 0  0.06999999999880724 -0.5 0  0.079999999998835 -0.5 0  0.08999999999886266 -0.5 0  0.09999999999889042 -0.5 0  0.1099999999989182 -0.5 0  0.1199999999989459 -0.5 0  0.1299999999989737 -0.5 0  0.1399999999990014 -0.5 0  0.1499999999990291 -0.5 0  0.1599999999990568 -0.5 0  0.1699999999990847 -0.5 0  0.1799999999991124 -0.5 0  0.1899999999991401 -0.5 0  0.1999999999991678 -0.5 0  0.2099999999991955 -0.5 0  0.2199999999992234 -0.5 0  0.2299999999992511 -0.5 0  0.2399999999992788 -0.5 0  0.2499999999993066 -0.5 0  0.2599999999993342 -0.5 0  0.269999999999362 -0.5 0  0.2799999999993897 -0.5 0  0.2899999999994175 -0.5 0  0.2999999999994452 -0.5 0  0.3099999999994729 -0.5 0  0.3199999999995007 -0.5 0  0.3299999999995284 -0.5 0  0.3399999999995562 -0.5 0  0.3499999999995839 -0.5 0  0.3599999999996116 -0.5 0  0.3699999999996393 -0.5 0  0.379999999999667 -0.5 0  0.3899999999996949 -0.5 0  0.3999999999997226 -0.5 0  0.4099999999997503 -0.5 0  0.419999999999778 -0.5 0  0.4299999999998058 -0.5 0  0.4399999999998336 -0.5 0  0.4499999999998613 -0.5 0  0.4599999999998891 -0.5 0  0.4699999999999167 -0.5 0  0.4799999999999445 -0.5 0  0.4899999999999722 -0.5 0  0.5 -0.4902110204681464 0  0.5 -0.4804459958734807 0  0.5 -0.4707048677450883 0  0.5 -0.4609875815766065 0  0.5 -0.4512940759251849 0  0.5 -0.4416242912883993 0  0.5 -0.4319781678689807 0  0.5 -0.4223556545383647 0  0.5 -0.4127566896324213 0  0.5 -0.4031812128200121 0  0.5 -0.3936291733057916 0  0.5 -0.3841005081172659 0  0.5 -0.3745951585781932 0  0.5 -0.3651130778999337 0  0.5 -0.3556541993788045 0  0.5 -0.3462184677228392 0  0.5 -0.3368058273705318 0  0.5 -0.3274162224888609 0  0.5 -0.3180495969712945 0  0.5 -0.3087058944357755 0  0.5 -0.299385058222682 0  0.5 -0.2900870313927414 0  0.5 -0.2808117567250807 0  0.5 -0.2715591844628491 0  0.5 -0.2623292564012653 0  0.5 -0.253121909553727 0  0.5 -0.2439371050851549 0  0.5 -0.2347747685524501 0  0.5 -0.2256348634421331 0  0.5 -0.2165173209784076 0  0.5 -0.207422087829958 0  0.5 -0.1983491207029381 0  0.5 -0.1892983550950482 0  0.5 -0.1802697378305253 0  0.5 -0.1712632154965152 0  0.5 -0.1622787344187354 0  0.5 -0.1533162406595534 0  0.5 -0.1443756800160514 0  0.5 -0.1354569980180493 0  0.5 -0.1265601399261414 0  0.5 -0.1176850622761093 0  0.5 -0.1088317009011999 0  0.5 -0.09166666666668973 0  0.5 -0.08333333333337943 0  0.5 -0.07500000000006915 0  0.5 -0.06666666666675886 0  0.5 -0.05833333333344858 0  0.5 -0.05000000000013693 0  0.5 -0.04166666666678191 0  0.5 -0.03333333333342643 0  0.5 -0.02500000000006916 0  0.5 -0.01666666666671188 0  0.5 -0.00833333333335548 0  0.5 0.008333333333318314 0  0.5 0.01666666666663358 0  0.5 0.02499999999994162 0  0.5 0.03333333333325101 0  0.5 0.04166666666655769 0  0.5 0.04999999999986843 0  0.5 0.05833333333322258 0  0.5 0.06666666666657715 0  0.5 0.07499999999993352 0  0.5 0.08333333333328992 0  0.5 0.09166666666664541 0  0.5 0.1088317009011616 0  0.5 0.1176850622760307 0  0.5 0.1265601399260203 0  0.5 0.1354569980178909 0  0.5 0.1443756800158549 0  0.5 0.153316240659315 0  0.5 0.1622787344184454 0  0.5 0.1712632154961752 0  0.5 0.1802697378301332 0  0.5 0.1892983550946039 0  0.5 0.1983491207024433 0  0.5 0.2074220878294123 0  0.5 0.216517320977811 0  0.5 0.2256348634414833 0  0.5 0.2347747685517479 0  0.5 0.2439371050844009 0  0.5 0.2531219095529224 0  0.5 0.2623292564004089 0  0.5 0.2715591844619371 0  0.5 0.2808117567241139 0  0.5 0.290087031391723 0  0.5 0.2993850582216101 0  0.5 0.3087058944347426 0  0.5 0.3180495969703129 0  0.5 0.3274162224879299 0  0.5 0.3368058273696494 0  0.5 0.3462184677220051 0  0.5 0.3556541993780186 0  0.5 0.3651130778991989 0  0.5 0.3745951585775107 0  0.5 0.3841005081166359 0  0.5 0.3936291733052134 0  0.5 0.4031812128194852 0  0.5 0.412756689631945 0  0.5 0.4223556545379392 0  0.5 0.431978167868607 0  0.5 0.4416242912880781 0  0.5 0.4512940759249164 0  0.5 0.4609875815763912 0  0.5 0.4707048677449264 0  0.5 0.4804459958733726 0  0.5 0.4902110204680924 0  0.4900000000000277 0.5 0  0.4800000000000555 0.5 0  0.4700000000000832 0.5 0  0.4600000000001109 0.5 0  0.4500000000001387 0.5 0  0.4400000000001664 0.5 0  0.4300000000001942 0.5 0  0.4200000000002219 0.5 0  0.4100000000002497 0.5 0  0.4000000000002774 0.5 0  0.3900000000003052 0.5 0  0.3800000000003328 0.5 0  0.3700000000003606 0.5 0  0.3600000000003883 0.5 0  0.3500000000004161 0.5 0  0.3400000000004438 0.5 0  0.3300000000004716 0.5 0  0.3200000000004993 0.5 0  0.3100000000005271 0.5 0  0.3000000000005548 0.5 0  0.2900000000005825 0.5 0  0.2800000000006103 0.5 0  0.2700000000006381 0.5 0  0.2600000000006658 0.5 0  0.2500000000006935 0.5 0  0.2400000000007212 0.5 0  0.230000000000749 0.5 0  0.2200000000007767 0.5 0  0.2100000000008044 0.5 0  0.2000000000008322 0.5 0  0.19000000000086 0.5 0  0.1800000000008877 0.5 0  0.1700000000009154 0.5 0  0.1600000000009431 0.5 0  0.1500000000009709 0.5 0  0.1400000000009986 0.5 0  0.1300000000010264 0.5 0  0.1200000000010541 0.5 0  0.1100000000010818 0.5 0  0.1000000000011096 0.5 0  0.09000000000113734 0.5 0  0.08000000000116503 0.5 0  0.07000000000119283 0.5 0  0.06000000000122058 0.5 0  0.05000000000124827 0.5 0  0.04000000000127607 0.5 0  0.03000000000130376 0.5 0  0.02000000000133151 0.5 0  0.01000000000135925 0.5 0  1.376121439022882e-12 0.5 0  -0.009999999998640763 0.5 0  -0.01999999999866864 0.5 0  -0.02999999999869629 0.5 0  -0.03999999999872406 0.5 0  -0.04999999999875182 0.5 0  -0.05999999999877947 0.5 0  -0.06999999999880724 0.5 0  -0.079999999998835 0.5 0  -0.08999999999886266 0.5 0  -0.09999999999889042 0.5 0  -0.1099999999989182 0.5 0  -0.1199999999989459 0.5 0  -0.1299999999989737 0.5 0  -0.1399999999990014 0.5 0  -0.1499999999990291 0.5 0  -0.1599999999990568 0.5 0  -0.1699999999990847 0.5 0  -0.1799999999991124 0.5 0  -0.1899999999991401 0.5 0  -0.1999999999991678 0.5 0  -0.2099999999991955 0.5 0  -0.2199999999992234 0.5 0  -0.2299999999992511 0.5 0  -0.2399999999992788 0.5 0  -0.2499999999993066 0.5 0  -0.2599999999993342 0.5 0  -0.269999999999362 0.5 0  -0.2799999999993897 0.5 0  -0.2899999999994175 0.5 0  -0.2999999999994452 0.5 0  -0.3099999999994729 0.5 0  -0.3199999999995007 0.5 0  -0.3299999999995284 0.5 0  -0.3399999999995562 0.5 0  -0.3499999999995839 0.5 0  -0.3599999999996116 0.5 0  -0.3699999999996393 0.5 0  -0.379999999999667 0.5 0  -0.3899999999996949 0.5 0  -0.3999999999997226 0.5 0  -0.4099999999997503 0.5 0  -0.419999999999778 0.5 0  -0.4299999999998058 0.5 0  -0.4399999999998336 0.5 0  -0.4499999999998613 0.5 0  -0.4599999999998891 0.5 0  -0.4699999999999167 0.5 0  -0.4799999999999445 0.5 0  -0.4899999999999722 0.5 0  -0.5 0.4902110204681464 0  -0.5 0.4804459958734807 0  -0.5 0.4707048677450883 0  -0.5 0.4609875815766065 0  -0.5 0.4512940759251849 0  -0.5 0.4416242912883993 0  -0.5 0.4319781678689807 0  -0.5 0.4223556545383647 0  -0.5 0.4127566896324213 0  -0.5 0.4031812128200121 0  -0.5 0.3936291733057916 0  -0.5 0.3841005081172659 0  -0.5 0.3745951585781932 0  -0.5 0.3651130778999337 0  -0.5 0.3556541993788045 0  -0.5 0.3462184677228392 0  -0.5 0.3368058273705318 0  -0.5 0.3274162224888609 0  -0.5 0.3180495969712945 0  -0.5 0.3087058944357755 0  -0.5 0.299385058222682 0  -0.5 0.2900870313927414 0  -0.5 0.2808117567250807 0  -0.5 0.2715591844628491 0  -0.5 0.2623292564012653 0  -0.5 0.253121909553727 0  -0.5 0.2439371050851549 0  -0.5 0.2347747685524501 0  -0.5 0.2256348634421331 0  -0.5 0.2165173209784076 0  -0.5 0.207422087829958 0  -0.5 0.1983491207029381 0  -0.5 0.1892983550950482 0  -0.5 0.1802697378305253 0  -0.5 0.1712632154965152 0  -0.5 0.1622787344187354 0  -0.5 0.1533162406595534 0  -0.5 0.1443756800160514 0  -0.5 0.1354569980180493 0  -0.5 0.1265601399261414 0  -0.5 0.1176850622761093 0  -0.5 0.1088317009011999 0  -0.5 0.09167500000001694 0  -0.5 0.08335000000003931 0  -0.5 0.07502500000006167 0  -0.5 0.06670000000008947 0  -0.5 0.05837500000011001 0  -0.5 0.0500500000001328 0  -0.5 0.0417250000001127 0  -0.5 0.03340000000008944 0  -0.5 0.02507500000006573 0  -0.5 0.01675000000004653 0  -0.5 0.008425000000027341 
[...]
<PointData  Scalars="f_25"> 
<DataArray  type="Float64"  Name="f_25"  format="ascii">1.0000000000000000e+00  3.3842748876595578e-09  5.5035420853615899e-06  9.9368653622295311e-01  2.4127997812412121e-06  3.4142011372804607e-08  1.0000000000000000e+00  1.0000000000000000e+00  2.0784533332581573e-03  1.1726011788147546e-03  1.1821044275775565e-03  1.1815700972890694e-03  3.7747252110565692e-09  4.7044060636185691e-09  5.9195224628627853e-09  7.2497728755208562e-09  8.5193913151445726e-09  9.7486706783112344e-09  1.0933771377563408e-08  1.2165990144797638e-08  1.3355145019385796e-08  1.4583913089806641e-08  1.5862976487425993e-08  1.7302695260401018e-08  1.8828949137207419e-08  2.0494159530138231e-08  2.2349086686712554e-08  2.4440690706063852e-08  2.6888334554877813e-08  2.9535813721886619e-08  3.2509811768071484e-08  3.5871697336414975e-08  3.9462152671725035e-08  4.3421567677568191e-08  4.7889084055106759e-08  5.2574230258457789e-08  5.7751772025499828e-08  6.3363767616820284e-08  6.9422670900445316e-08  7.6107359968044031e-08  8.3072570925127778e-08  9.0759297913486021e-08  9.8855967371186058e-08  1.0752450856469245e-07  1.1673609697127481e-07  1.2662129296266341e-07  1.3707584018357801e-07  1.4805848871595114e-07  1.5967170043648010e-07  1.7195580868227360e-07  1.8483365384610517e-07  1.9821354446021679e-07  2.1230627292451436e-07  2.2706397248196011e-07  2.4221966686270524e-07  2.5814473039373444e-07  2.7450533085005398e-07  2.9167588612347759e-07  3.0913458433674914e-07  3.2715344670276732e-07  3.4585340497515732e-07  3.6491120865992701e-07  3.8447136812324259e-07  4.0450205306174578e-07  4.2519291542827002e-07  4.4631434475470245e-07  4.6747842656505902e-07  4.8914437138635303e-07  5.1128653092541317e-07  5.3391810254907958e-07  5.5685779469795548e-07  5.8001462896298400e-07  6.0399999198861326e-07  6.2845919548213613e-07  6.5279249775958751e-07  6.7778265854537061e-07  7.0337730059915642e-07  7.2904230611573326e-07  7.5569004439349023e-07  7.8251575959448448e-07  8.0995397144840874e-07  8.3825877462465952e-07  8.6733050149911018e-07  8.9725524619498216e-07  9.2797475285774733e-07  9.5922967479214598e-07  9.9174789556499359e-07  1.0257162781122147e-06  1.0607216805992880e-06  1.0974972448047779e-06  1.1365162304871401e-06  1.1770500056656836e-06  1.2206020974920373e-06  1.2661477678502451e-06  1.3145732082871654e-06  1.3669087287233309e-06  1.4241406673428407e-06  1.4858851651207347e-06  1.5538809001278389e-06  1.6308440220960391e-06  1.7160785487035816e-06  1.8144500977902384e-06  1.9276770861088190e-06  2.0653829571217907e-06  2.2277340631461605e-06  2.4323595522697686e-06  2.6945855656356030e-06  3.0394660415299151e-06  3.4917017334121597e-06  4.0847533800186975e-06  4.8507907886681068e-06  5.0995214768321553e-06  4.3825107894675588e-06  3.8229744156401067e-06  3.3860050572209281e-06  3.0732590277762633e-06  2.8430920353233001e-06  2.6737806189620011e-06  2.5437921490704409e-06  2.4422919145309037e-06  2.3632408720530625e-06  2.2990705037724915e-06  2.2483161118616043e-06  2.2067279242427677e-06  2.1739951169213600e-06  2.1466513339609217e-06  2.1242104215327790e-06  2.1064780407024046e-06  2.0919717590030999e-06  2.0800825271097632e-06  2.0712228705387734e-06  2.0645100580591874e-06  2.0606175022456247e-06  2.0597063767892820e-06  2.0628471826421266e-06  2.0721014188168378e-06  2.0910988249528419e-06  2.1272459769868100e-06  2.1905759072092076e-06  2.3089319984045072e-06  2.5254633373271852e-06  2.9149940053619459e-06  3.6475223607599792e-06  4.9593437474368950e-06  7.3700951687804606e-06  1.1655694466981706e-05  1.9795373469459818e-05  3.4622880889542050e-05  6.1853337155926596e-05  1.1080182012894549e-04  1.9811296640176074e-04  3.6017475995611182e-04  6.5235775745004756e-04  2.0737450959540790e-03  3.6516644690878903e-03  6.4386619598253174e-03  1.1178504923935585e-02  1.9577035684084559e-02  3.4364985646191705e-02  6.0115198406698885e-02  1.0516198410372214e-01  1.8341808584503028e-01  3.2560285689310792e-01  5.7169937954364025e-01  9.8215307986370759e-01  5.7215238837562099e-01  3.2983131181840875e-01  1.8471315088321030e-01  1.0528979833104103e-01  6.0222663590651523e-02  3.4348331742650402e-02  1.9617216329717205e-02  1.1146696377222954e-02  6.4525791421047368e-03  3.6750823749522434e-03  1.1553783384623227e-03  6.3727026369695924e-04  3.4996030522494890e-04  1.9511510828876304e-04  1.0828710567930912e-04  5.9981283309834401e-05  3.3686341156617695e-05  1.9250214624240316e-05  1.1665718529257709e-05  7.4091016462010612e-06  5.0945230569515245e-06  3.8103465366639133e-06  3.1315469975680289e-06  2.7575749573536424e-06  2.5566709706642597e-06  2.4507110052584934e-06  2.3920164060102298e-06  2.3619444406000577e-06  2.3473295007340093e-06  2.3413716453447146e-06  2.3400801239042990e-06  2.3424737111482448e-06  2.3446959473594211e-06  2.3496441457701188e-06  2.3537089767334085e-06  2.3585650078407043e-06  2.3647207850299616e-06  2.3686888174703636e-06  2.3734515802246974e-06  2.3785737417804527e-06  2.3834106769231207e-06  2.3876824273667533e-06  2.3914960095172916e-06  2.3954741558813193e-06  2.3990688099212464e-06  2.4023029885049380e-06  2.4048340695945194e-06  2.4074647179694318e-06  2.4092879344189916e-06  2.4120226048067978e-06  2.4114596315065188e-06  2.4125896730861590e-06  2.3965007949517948e-06  2.3622185859785772e-06  2.3189179578848862e-06  2.2714950438945732e-06  2.2221448882034510e-06  2.1728348504075099e-06  2.1245137144443888e-06  2.0774707383551139e-06  2.0308109449524445e-06  1.9854812437255935e-06  1.9413814724908550e-06  1.8986118937966048e-06  1.8562228984269175e-06  1.8153745356986610e-06  1.7753438407149752e-06  1.7358995787161601e-06  1.6974176586598265e-06  1.6596596841680025e-06  1.6227169646754095e-06  1.5858280247592877e-06  1.5498974785079770e-06  1.5140710977440461e-06  1.4789089837915669e-06  1.4434339803557679e-06  1.4085633437368874e-06  1.3740762996413613e-06  1.3391620290276938e-06  1.3045005613235748e-06  1.2690299717779816e-06  1.2340998692136512e-06  1.1988440414117286e-06  1.1634562879629220e-06  1.1275498581192309e-06  1.0914316961007889e-06  1.0551404414515504e-06  1.0186604576273362e-06  9.8195767552538084e-07  9.4504837628173279e-07  9.0779810809220042e-07  8.6984964888238050e-07  8.3234026730131568e-07  7.9476810936265359e-07  7.5735047313226680e-07  7.2024190752383554e-07  6.8291628806607192e-07  6.4643073267731143e-07  6.0969834150672590e-07  5.7357985748784597e-07  5.3832810968485261e-07  5.0395640633569568e-07  4.7050141250254774e-07  4.3740825960016544e-07  4.0602413040474678e-07  3.7536123128510230e-07  3.4575862689392415e-07  3.1778766684001660e-07  2.9071231455945660e-07  2.6507101299621789e-07  2.4088986995844863e-07  2.1792977612844680e-07  1.9661137602238597e-07  1.7643317678457910e-07  1.5776860033391078e-07  1.4038457973252061e-07  1.2435544493710720e-07  1.0955109607161342e-07  9.5851778266030264e-08  8.3573977284206699e-08  7.2221639115990029e-08  6.2033269321927729e-08  5.2812848678741499e-08  4.4604402804200949e-08  3.7216215446745961e-08  3.0756010095630421e-08  2.4990195341212317e-08  1.9987975656063909e-08  1.5730204417277022e-08  1.2040533606240646e-08  8.9859807306042192e-09  6.4580038202608075e-09  4.4655773980791917e-09  2.9804124539831327e-09  1.9607848960307894e-09  1.4050390999049891e-09  1.2655830135199687e-09  1.5181016432965956e-09  2.1373131937392930e-09  3.0870685661026718e-09  4.3489200728779777e-09  5.8879819142800792e-09  7.7471732543045251e-09  9.9161570969355536e-09  1.2448057891563395e-08  1.5283095049258337e-08  1.8525754130940399e-08  2.2040509382338676e-08  2.5847585327511752e-08  2.9551265774151615e-08  3.2606577334771518e-08  3.4145701216782572e-08  3.4033464448079715e-08  3.3966832561139278e-08  3.3582274310394268e-08  3.3284034131486406e-08  3.2899922551038407e-08  3.2413775749109969e-08  3.1915897462274871e-08  3.1278622179817449e-08  3.0651047746339629e-08  2.9954248604245674e-08  2.9198485611871250e-08  2.8363587509362944e-08  2.7477562200156214e-08  2.6559113486817670e-08  2.5608399181268301e-08  2.4646051215760799e-08  2.3678472189409974e-08  2.2769004984101779e-08  2.2048824274293794e-08  2.1678975747132830e-08  2.1946754220984588e-08  2.3509527027491885e-08  2.7501889964149541e-08  3.5917187606079933e-08  5.2611214959140010e-08  8.4472476952541485e-08  1.4509967645603686e-07  2.5860413920857602e-07  4.6888001878130934e-07  8.5760097549660969e-07  1.5644496773934302e-06  2.8762939440032962e-06  5.2994505559838831e-06  9.6280541272495303e-06  1.7809357350953572e-05  3.2582261788452814e-05  5.9491126407606208e-05  1.0813492079264819e-04  1.9582007376032750e-04  3.5979763008442444e-04  6.5481835744295440e-04  2.0961168051960521e-03  3.6840477012439377e-03  6.4858482513249424e-03  1.1256665080191268e-02  1.9737252647350635e-02  3.4720941381232141e-02  6.0782049385182613e-02  1.0622165165225843e-01  1.8493003605352240e-01  3.2702515527423209e-01  5.7160142370232092e-01  1.0000000000000000e+00  1.0000000000000000e+00  1.0000000000000000e+00  1.0000000000000000e+00  1.0000000000000000e+00  1.0000000000000000e+00  1.0000000000000000e+00  1.0000000000000000e+00  1.0000000000000000e+00  1.0000000000000000e+00  1.0000000000000000e+00  1.0000000000000000e+00  1.0000000000000000e+00  1.0000000000000000e+00  1.0000000000000000e+00  1.0000000000000000e+00  1.0000000000000000e+00  1.0000000000000000e+00  9.9999999999999989e-01  1.0000000000000000e+00  1.0000000000000000e+00  1.0000000000000000e+00  1.0000000000000000e+00  1.0000000000000000e+00  1.0000000000000000e+00  1.0000000000000000e+00  1.0000000000000000e+00  1.0000000000000000e+00  1.0000000000000000e+00  1.0000000000000000e+00  1.0000000000000000e+00  1.0000000000000000e+00  1.0000000000000000e+00  1.0000000000000000e+00  1.0000000000000000e+00  1.0000000000000000e+00  1.0000000000000000e+00  1.0000000000000000e+00  1.0000000000000000e+00  1.0000000000000000e+00  1.0000000000000000e+00  1.0000000000000000e+00  1.0000000000000000e+00  1.0000000000000000e+00  1.0000000000000000e+00  1.0000000000000000e+00  1.0000000000000000e+00  1.0000000000000000e+00  1.0000000000000000e+00  1.0000000000000000e+00  1.0000000000000000e+00  1.0000000000000000e+00  1.0000000000000000e+00  1.0000000000000000e+00  1.0000000000000000e+00  1.0000000000000000e+00  1.0000000000000000e+00  1.0000000000000000e+00  1.0000000000000000e+00  1.0000000000000000e+00  1.0000000000000000e+00  1.0000000000000000e+00  1.0000000000000000e+00  1.0000000000000000e+00  1.0000000000000000e+00  1.0000000000000000e+00  1.0000000000000000e+00  1.0000000000000000e+00  1.0000000000000000e+00  1.0000000000000000e+00  1.0000000000000000e+00  1.0000000000000000e+00  1.0000000000000000e+00  1.0000000000000000e+00  1.0000000000000000e+00  1.0000000000000000e+00  1.0000000000000000e+00  1.0000000000000000e+00  1.0000000000000000e+00  1.0000000000000000e+00  1.0000000000000000e+00  1.0000000000000000e+00  1.0000000000000000e+00  1.0000000000000000e+00  1.0000000000000000e+00  1.0000000000000000e+00  1.0000000000000000e+00  1.0000000000000000e+00  1.0000000000000000e+00  1.0000000000000000e+00  1.0000000000000000e+00  1.0000000000000000e+00  1.0000000000000000e+00  1.0000000000000000e+00  1.0000000000000000e+00  1.0000000000000000e+00  1.0000000000000000e+00  1.0000000000000000e+00  1.0000000000000000e+00  1.0000000000000000e+00  1.0000000000000000e+00  1.0000000000000000e+00  1.0000000000000000e+00  1.0000000000000000e+00  1.0000000000000000e+00  1.0000000000000000e+00  1.0000000000000000e+00  1.0000000000000000e+00  1.0000000000000000e+00  1.0000000000000000e+00  5.7157081541159216e-01  3.2704024579480234e-01  1.8489315727468134e-01  1.0623927491765234e-01  6.0789268552702953e-02  3.4726290704729448e-02  1.9744685472945545e-02  1.1258434858484510e-02  6.4895804854080497e-03  3.6859957164341738e-03  2.0973563835488137e-03  6.5513277196875314e-04  3.5991772471700718e-04  1.9537253292134217e-04  1.0819605954263125e-04  5.9558556224526000e-05  3.2620613307936442e-05  1.7824998244838323e-05  9.6382641558936428e-06  5.3027025479002504e-06  2.8775168686411067e-06  1.5653594644732983e-06  8.5828938076467373e-07  4.6935079930553139e-07  2.5864092256329878e-07  1.4477437041562971e-07  8.3793142147893382e-08  5.1530103076642481e-08  3.4384494881758377e-08  2.5421420115414666e-08  2.0810059206652446e-08  1.8550136243699820e-08  1.7483516966548907e-08  1.6970868372295413e-08  1.6693843441154701e-08  1.6499883205704229e-08  1.6281208846522582e-08  1.5981728875863884e-08  1.5551679243855405e-08  1.4995837069506410e-08  1.4346200851362580e-08  1.3557511427245779e-08  1.2658024383074714e-08  1.1661651462738240e-08  1.0569717068155259e-08  9.4471054532313462e-09  8.3471917178650797e-09  7.2200439234871179e-09  6.1075099062230081e-09  5.1117430885457841e-09  4.2337399501802549e-09  3.7750693471568285e-09  3.4584046479628339e-09  1.1789209053877918e-03  1.1823901365486623e-03  1.1825384972051114e-03  1.1783930736793020e-03  1.1725511181515569e-03  1.1865533768077282e-03  1.1823461915743917e-03  1.1649305940229890e-03  1.1761324624643909e-03  1.1877984383323809e-03  1.1644113544599405e-03  1.1772174978886640e-03  1.1866830709604619e-03  1.1848139512898959e-03  1.1827316440210685e-03  1.1728128141092614e-03  1.1708335043176612e-03  1.1599304360564381e-03  1.1782027111949870e-03  1.1818661733836199e-03  1.1710722687188594e-03  1.1707934808759769e-03  1.1852214260933056e-03  1.1857377157625721e-03  1.1735616365465328e-03  1.1765901874616494e-03  1.1783828421238660e-03  1.1720898471179069e-03  1.1845731549045074e-03  1.1782043371382596e-03  1.1702514260085374e-03  1.1758045693625377e-03  1.1763697778405140e-03  1.1653896866534487e-03  1.1765474911021665e-03  1.1925474774173367e-03  1.1657489859549985e-03  1.1823841924501334e-03  1.1817522047968777e-03  1.1674918644845004e-03  1.1922153215206163e-03  1.1867457782144680e-03  1.1722426143452979e-03  1.1877018155514228e-03  1.1775451362650582e-03  1.1858881595482249e-03  1.2152653118517515e-03  1.2373495800004504e-03  1.2534624459871932e-03  1.3061937709662286e-03  1.3619508688093940e-03  1.4173938255389840e-03  1.5267712997892651e-03  1.6146949196353998e-03  1.7058539455301598e-03  1.8201206782797335e-03  1.8970374840333215e-03  1.9439002189648280e-03  2.0384217134219204e-03  2.0658402302543210e-03  2.0751546593406850e-03  2.1003917283389946e-03  2.0630295705144578e-03  2.0790128437240020e-03  2.0783948503690242e-03  2.0728157989903851e-03  2.0504951578766274e-03  2.0131657725973224e-03  2.0412034205311942e-03  2.0457850815157577e-03  2.0333282540423952e-03  2.0176562290663324e-03  2.0202070110111915e-03  2.0142012553070231e-03  1.9810673263974841e-03  1.9975737187903114e-03  1.9866342579196498e-03  1.9668261893766308e-03  1.9857463251496733e-03  1.9734499133232486e-03  1.9592159466333445e-03  1.9826318414645329e-03  1.9924931306807125e-03  1.9724487995066283e-03  1.9655822865897272e-03  2.0150332736870954e-03  2.0085903295660314e-03  2.0105623266417957e-03  2.0106370348235919e-03  1.9843111853893275e-03  2.0064893554610774e-03  2.0232105119492019e-03  2.0236849880998940e-03  2.0246260304011775e-03  1.9939146824392816e-03  2.0229198371150121e-03  2.0392282821022193e-03  2.0488197931746604e-03  2.0385258378065778e-03  2.0437908395257915e-03  2.0560517982544714e-03  2.0677425587380528e-03  2.0691119056385336e-03  2.0825266164208535e-03  2.0927291395343747e-03  2.0820128663388356e-03  2.0872833656430455e-03  2.0824633130251602e-03  2.0635039831805326e-03  2.0926242692022382e-03  2.1065238404958226e-03  1.1794958523569917e-03  1.1825750314715588e-03  1.1827088827532281e-03  1.1785098560190129e-03  1.1727025167751011e-03  1.1871318558880888e-03  1.1825208079902759e-03  1.1653089444338663e-03  1.1759486616417065e-03  1.1871441793066745e-03  1.1659270891946402e-03  1.1762333982137060e-03  1.1856554266533612e-03  1.1836550702383659e-03  1.1815023105622609e-03  1.1721894985302966e-03  1.1690858948555519e-03  1.1560900368140592e-03  1.1758564455280527e-03  1.1837002296565392e-03  1.1735571393288217e-03  1.1746599714781418e-03  1.1869549992902272e-03  1.1876905503381793e-03  1.1745527075659270e-03  1.1772799657449662e-03  1.1795213730963526e-03  1.1732305621456108e-03  1.1848508448757682e-03  1.1787097911862702e-03  1.1700915901078409e-03  1.1742612788709582e-03  1.1733565800540688e-03  1.1623236178070003e-03  1.1733708363122985e-03  1.1899338628650980e-03  1.1625935907670767e-03  1.1791205346690021e-03  1.1773998196014002e-03  1.1627128842174323e-03  1.1881486639155965e-03  1.1816375997584982e-03  1.1669868104772108e-03  1.1812682423074851e-03  1.1666253665556241e-03  1.1665554351695559e-03  1.1815727399313155e-03  1.1827758695874765e-03  1.1676844234363140e-03  1.1771069620776073e-03  1.1773641093374260e-03  1.1601334369312631e-03  1.1785159647081042e-03  1.1755511767280620e-03  1.1680399939552422e-03  1.1771352495935237e-03  1.1731165499516600e-03  1.1575230756230423e-03  1.1792446450824892e-03  1.1747333514091406e-03  1.1671819035337519e-03  1.1768189928047428e-03  1.1554863780982737e-03  1.1660920155547678e-03  1.1688177718950925e-03  1.1689687057543573e-03  1.1600686256863580e-03  1.1433366206825893e-03  1.1641282938601339e-03  1.1727597311594240e-03  1.1713563702356519e-03  1.1659007525062664e-03  1.1736736333038214e-03  1.1758176798071782e-03  1.1621856053361784e-03  1.1773645894749029e-03  1.1759332884695500e-03  1.1679410746243625e-03  1.1811671437009852e-03  1.1735889483794047e-03  1.1626118066730981e-03  1.1726867562719778e-03  1.1737304569825954e-03  1.1593871156630375e-03  1.1488101481162479e-03  1.1732947996020546e-03  1.1668521963329500e-03  1.1673206584843635e-03  1.1685353173711407e-03  1.1548207901692202e-03  1.1684372796850241e-03  1.1781772925863556e-03  1.1761353914244951e-03  1.1722389933042868e-03  1.1505495439617190e-03  1.1645883165599391e-03  1.1719385417143032e-03  1.1760857801294726e-03  1.1675120023640776e-03  1.1671997069323831e-03  1.1695652750683409e-03  1.1717306583800028e-03  1.1693254629650733e-03  1.1744326185420062e-03  1.1789696894473609e-03  1.1730513892503089e-03  1.1751387191076944e-03  1.1731473961250128e-03  1.1619923273653650e-03  1.1795124827338091e-03  1.1892048211359558e-03  9.9049306825318850e-01  9.9698600027733453e-01  9.9202556036646949e-01  9.9366699488253651e-01  9.9452190648528394e-01  9.9390458170908924e-01  9.9445764039738227e-01  9.9491914726398845e-01  9.9351292604605446e-01  9.9407020046163708e-01  9.9254133557941560e-01  9.9632481146455620e-01  9.9309908980759032e-01  9.9514066590280037e-01  9.9449259592799455e-01  9.9503067383342825e-01  9.9488350298268269e-01  9.9478733671367592e-01  9.9503715085007161e-01  9.9508546422939292e-01  9.9519907891585757e-01  9.9527140424350624e-01  9.9541083904490069e-01  9.9575823921380491e-01  9.9572658027332905e-01  9.9363122552343131e-01  9.9764673185274921e-01  9.9419154897144357e-01  9.9591045937068434e-01  9.9442537726258484e-01  9.9350743633445782e-01  9.9359511879461537e-01  9.9452473734051150e-01  9.9590840234661115e-01  9.9414665879060460e-01  9.9787758233869328e-01  9.9372103026570824e-01  9.9365535041064934e-01  9.9733066089088929e-01  9.9303701272989053e-01  9.9406181706229857e-01  9.9377512512823785e-01  9.9523042950692497e-01  9.9479447021099865e-01  9.9427719077796228e-01  9.9428525687424008e-01  9.9327803695029038e-01  9.9414527333509350e-01  9.9475799505007556e-01  9.9402410406705732e-01  9.9469512886035005e-01  9.9397157011506410e-01  9.9479884085192449e-01  9.9268138956855745e-01  9.9561256364750028e-01  2.5188507429587161e-07  9.0334488584206115e-09  1.0621210580551839e-06  1.5884482503218516e-06  1.2245945494658668e-06  3.2766619975567838e-07  3.5621036722573920e-07  1.9690036934956687e-06  1.3043665407957274e-06  5.8482961236567963e-07  6.5785178207700195e-08  4.4900101106439475e-09  2.9177725708544941e-06  1.8950568503555879e-06  1.8026343659235263e-06  1.5135188574537609e-06  4.0534140477460749e-06  9.5266595313043402e-07  9.3669081012733859e-09  2.4571814916132787e-07  5.7925877971342208e