<?xml version="1.0"?>
<VTKFile type="UnstructuredGrid"  version="0.1"  >
<UnstructuredGrid>
<Piece  NumberOfPoints="15540" NumberOfCells="30546">
<Points>
<DataArray  type="Float64"  NumberOfComponents="3"  format="ascii">0 0 0  -0.5 -0.5 0  0.5 -0.5 0  0.5 0 0  0.5 0.5 0  -0.5 0.5 0  -0.5 0.0001 0  -0.5 -0.0001 0  0.5 0.1 0  0.5 -0.1 0  -0.5 -0.1 0  -0.5 0.1 0  -0.4900000000000277 -0.5 0  -0.4800000000000555 -0.5 0  -0.4700000000000832 -0.5 0  -0.4600000000001109 -0.5 0  -0.4500000000001387 -0.5 0  -0.4400000000001664 -0.5 0  -0.4300000000001942 -0.5 0  -0.4200000000002219 -0.5 0  -0.4100000000002497 -0.5 0  -0.4000000000002774 -0.5 0  -0.3900000000003052 -0.5 0  -0.3800000000003328 -0.5 0  -0.3700000000003606 -0.5 0  -0.3600000000003883 -0.5 0  -0.3500000000004161 -0.5 0  -0.3400000000004438 -0.5 0  -0.3300000000004716 -0.5 0  -0.3200000000004993 -0.5 0  -0.3100000000005271 -0.5 0  -0.3000000000005548 -0.5 0  -0.2900000000005825 -0.5 0  -0.2800000000006103 -0.5 0  -0.2700000000006381 -0.5 0  -0.2600000000006658 -0.5 0  -0.2500000000006935 -0.5 0  -0.2400000000007212 -0.5 0  -0.230000000000749 -0.5 0  -0.2200000000007767 -0.5 0  -0.2100000000008044 -0.5 0  -0.2000000000008322 -0.5 0  -0.19000000000086 -0.5 0  -0.1800000000008877 -0.5 0  -0.1700000000009154 -0.5 0  -0.1600000000009431 -0.5 0  -0.1500000000009709 -0.5 0  -0.1400000000009986 -0.5 0  -0.1300000000010264 -0.5 0  -0.1200000000010541 -0.5 0  -0.1100000000010818 -0.5 0  -0.1000000000011096 -0.5 0  -0.09000000000113734 -0.5 0  -0.08000000000116503 -0.5 0  -0.07000000000119283 -0.5 0  -0.06000000000122058 -0.5 0  -0.05000000000124827 -0.5 0  -0.04000000000127607 -0.5 0  -0.03000000000130376 -0.5 0  -0.02000000000133151 -0.5 0  -0.01000000000135925 -0.5 0  -1.376121439022882e-12 -0.5 0  0.009999999998640763 -0.5 0  0.01999999999866864 -0.5 0  0.02999999999869629 -0.5 0  0.03999999999872406 -0.5 0  0.04999999999875182 -0.5 0  0.05999999999877947 -0.5 0  0.06999999999880724 -0.5 0  0.079999999998835 -0.5 0  0.08999999999886266 -0.5 0  0.09999999999889042 -0.5 0  0.1099999999989182 -0.5 0  0.1199999999989459 -0.5 0  0.1299999999989737 -0.5 0  0.1399999999990014 -0.5 0  0.1499999999990291 -0.5 0  0.1599999999990568 -0.5 0  0.1699999999990847 -0.5 0  0.1799999999991124 -0.5 0  0.1899999999991401 -0.5 0  0.1999999999991678 -0.5 0  0.2099999999991955 -0.5 0  0.2199999999992234 -0.5 0  0.2299999999992511 -0.5 0  0.2399999999992788 -0.5 0  0.2499999999993066 -0.5 0  0.2599999999993342 -0.5 0  0.269999999999362 -0.5 0  0.2799999999993897 -0.5 0  0.2899999999994175 -0.5 0  0.2999999999994452 -0.5 0  0.3099999999994729 -0.5 0  0.3199999999995007 -0.5 0  0.3299999999995284 -0.5 0  0.3399999999995562 -0.5 0  0.3499999999995839 -0.5 0  0.3599999999996116 -0.5 0  0.3699999999996393 -0.5 0  0.379999999999667 -0.5 0  0.3899999999996949 -0.5 0  0.3999999999997226 -0.5 0  0.4099999999997503 -0.5 0  0.419999999999778 -0.5 0  0.4299999999998058 -0.5 0  0.4399999999998336 -0.5 0  0.4499999999998613 -0.5 0  0.4599999999998891 -0.5 0  0.4699999999999167 -0.5 0  0.4799999999999445 -0.5 0  0.4899999999999722 -0.5 0  0.5 -0.4902110204681464 0  0.5 -0.4804459958734807 0  0.5 -0.4707048677450883 0  0.5 -0.4609875815766065 0  0.5 -0.4512940759251849 0  0.5 -0.4416242912883993 0  0.5 -0.4319781678689807 0  0.5 -0.4223556545383647 0  0.5 -0.4127566896324213 0  0.5 -0.4031812128200121 0  0.5 -0.3936291733057916 0  0.5 -0.3841005081172659 0  0.5 -0.3745951585781932 0  0.5 -0.3651130778999337 0  0.5 -0.3556541993788045 0  0.5 -0.3462184677228392 0  0.5 -0.3368058273705318 0  0.5 -0.3274162224888609 0  0.5 -0.3180495969712945 0  0.5 -0.3087058944357755 0  0.5 -0.299385058222682 0  0.5 -0.2900870313927414 0  0.5 -0.2808117567250807 0  0.5 -0.2715591844628491 0  0.5 -0.2623292564012653 0  0.5 -0.253121909553727 0  0.5 -0.2439371050851549 0  0.5 -0.2347747685524501 0  0.5 -0.2256348634421331 0  0.5 -0.2165173209784076 0  0.5 -0.207422087829958 0  0.5 -0.1983491207029381 0  0.5 -0.1892983550950482 0  0.5 -0.1802697378305253 0  0.5 -0.1712632154965152 0  0.5 -0.1622787344187354 0  0.5 -0.1533162406595534 0  0.5 -0.1443756800160514 0  0.5 -0.1354569980180493 0  0.5 -0.1265601399261414 0  0.5 -0.1176850622761093 0  0.5 -0.1088317009011999 0  0.5 -0.09166666666668973 0  0.5 -0.08333333333337943 0  0.5 -0.07500000000006915 0  0.5 -0.06666666666675886 0  0.5 -0.05833333333344858 0  0.5 -0.05000000000013693 0  0.5 -0.04166666666678191 0  0.5 -0.03333333333342643 0  0.5 -0.02500000000006916 0  0.5 -0.01666666666671188 0  0.5 -0.00833333333335548 0  0.5 0.008333333333318314 0  0.5 0.01666666666663358 0  0.5 0.02499999999994162 0  0.5 0.03333333333325101 0  0.5 0.04166666666655769 0  0.5 0.04999999999986843 0  0.5 0.05833333333322258 0  0.5 0.06666666666657715 0  0.5 0.07499999999993352 0  0.5 0.08333333333328992 0  0.5 0.09166666666664541 0  0.5 0.1088317009011616 0  0.5 0.1176850622760307 0  0.5 0.1265601399260203 0  0.5 0.1354569980178909 0  0.5 0.1443756800158549 0  0.5 0.153316240659315 0  0.5 0.1622787344184454 0  0.5 0.1712632154961752 0  0.5 0.1802697378301332 0  0.5 0.1892983550946039 0  0.5 0.1983491207024433 0  0.5 0.2074220878294123 0  0.5 0.216517320977811 0  0.5 0.2256348634414833 0  0.5 0.2347747685517479 0  0.5 0.2439371050844009 0  0.5 0.2531219095529224 0  0.5 0.2623292564004089 0  0.5 0.2715591844619371 0  0.5 0.2808117567241139 0  0.5 0.290087031391723 0  0.5 0.2993850582216101 0  0.5 0.3087058944347426 0  0.5 0.3180495969703129 0  0.5 0.3274162224879299 0  0.5 0.3368058273696494 0  0.5 0.3462184677220051 0  0.5 0.3556541993780186 0  0.5 0.3651130778991989 0  0.5 0.3745951585775107 0  0.5 0.3841005081166359 0  0.5 0.3936291733052134 0  0.5 0.4031812128194852 0  0.5 0.412756689631945 0  0.5 0.4223556545379392 0  0.5 0.431978167868607 0  0.5 0.4416242912880781 0  0.5 0.4512940759249164 0  0.5 0.4609875815763912 0  0.5 0.4707048677449264 0  0.5 0.4804459958733726 0  0.5 0.4902110204680924 0  0.4900000000000277 0.5 0  0.4800000000000555 0.5 0  0.4700000000000832 0.5 0  0.4600000000001109 0.5 0  0.4500000000001387 0.5 0  0.4400000000001664 0.5 0  0.4300000000001942 0.5 0  0.4200000000002219 0.5 0  0.4100000000002497 0.5 0  0.4000000000002774 0.5 0  0.3900000000003052 0.5 0  0.3800000000003328 0.5 0  0.3700000000003606 0.5 0  0.3600000000003883 0.5 0  0.3500000000004161 0.5 0  0.3400000000004438 0.5 0  0.3300000000004716 0.5 0  0.3200000000004993 0.5 0  0.3100000000005271 0.5 0  0.3000000000005548 0.5 0  0.2900000000005825 0.5 0  0.2800000000006103 0.5 0  0.2700000000006381 0.5 0  0.2600000000006658 0.5 0  0.2500000000006935 0.5 0  0.2400000000007212 0.5 0  0.230000000000749 0.5 0  0.2200000000007767 0.5 0  0.2100000000008044 0.5 0  0.2000000000008322 0.5 0  0.19000000000086 0.5 0  0.1800000000008877 0.5 0  0.1700000000009154 0.5 0  0.1600000000009431 0.5 0  0.1500000000009709 0.5 0  0.1400000000009986 0.5 0  0.1300000000010264 0.5 0  0.1200000000010541 0.5 0  0.1100000000010818 0.5 0  0.1000000000011096 0.5 0  0.09000000000113734 0.5 0  0.08000000000116503 0.5 0  0.07000000000119283 0.5 0  0.06000000000122058 0.5 0  0.05000000000124827 0.5 0  0.04000000000127607 0.5 0  0.03000000000130376 0.5 0  0.02000000000133151 0.5 0  0.01000000000135925 0.5 0  1.376121439022882e-12 0.5 0  -0.009999999998640763 0.5 0  -0.01999999999866864 0.5 0  -0.02999999999869629 0.5 0  -0.03999999999872406 0.5 0  -0.04999999999875182 0.5 0  -0.05999999999877947 0.5 0  -0.06999999999880724 0.5 0  -0.079999999998835 0.5 0  -0.08999999999886266 0.5 0  -0.09999999999889042 0.5 0  -0.1099999999989182 0.5 0  -0.1199999999989459 0.5 0  -0.1299999999989737 0.5 0  -0.1399999999990014 0.5 0  -0.1499999999990291 0.5 0  -0.1599999999990568 0.5 0  -0.1699999999990847 0.5 0  -0.1799999999991124 0.5 0  -0.1899999999991401 0.5 0  -0.1999999999991678 0.5 0  -0.2099999999991955 0.5 0  -0.2199999999992234 0.5 0  -0.2299999999992511 0.5 0  -0.2399999999992788 0.5 0  -0.2499999999993066 0.5 0  -0.2599999999993342 0.5 0  -0.269999999999362 0.5 0  -0.2799999999993897 0.5 0  -0.2899999999994175 0.5 0  -0.2999999999994452 0.5 0  -0.3099999999994729 0.5 0  -0.3199999999995007 0.5 0  -0.3299999999995284 0.5 0  -0.3399999999995562 0.5 0  -0.3499999999995839 0.5 0  -0.3599999999996116 0.5 0  -0.3699999999996393 0.5 0  -0.379999999999667 0.5 0  -0.3899999999996949 0.5 0  -0.3999999999997226 0.5 0  -0.4099999999997503 0.5 0  -0.419999999999778 0.5 0  -0.4299999999998058 0.5 0  -0.4399999999998336 0.5 0  -0.4499999999998613 0.5 0  -0.4599999999998891 0.5 0  -0.4699999999999167 0.5 0  -0.4799999999999445 0.5 0  -0.4899999999999722 0.5 0  -0.5 0.4902110204681464 0  -0.5 0.4804459958734807 0  -0.5 0.4707048677450883 0  -0.5 0.4609875815766065 0  -0.5 0.4512940759251849 0  -0.5 0.4416242912883993 0  -0.5 0.4319781678689807 0  -0.5 0.4223556545383647 0  -0.5 0.4127566896324213 0  -0.5 0.4031812128200121 0  -0.5 0.3936291733057916 0  -0.5 0.3841005081172659 0  -0.5 0.3745951585781932 0  -0.5 0.3651130778999337 0  -0.5 0.3556541993788045 0  -0.5 0.3462184677228392 0  -0.5 0.3368058273705318 0  -0.5 0.3274162224888609 0  -0.5 0.3180495969712945 0  -0.5 0.3087058944357755 0  -0.5 0.299385058222682 0  -0.5 0.2900870313927414 0  -0.5 0.2808117567250807 0  -0.5 0.2715591844628491 0  -0.5 0.2623292564012653 0  -0.5 0.253121909553727 0  -0.5 0.2439371050851549 0  -0.5 0.2347747685524501 0  -0.5 0.2256348634421331 0  -0.5 0.2165173209784076 0  -0.5 0.207422087829958 0  -0.5 0.1983491207029381 0  -0.5 0.1892983550950482 0  -0.5 0.1802697378305253 0  -0.5 0.1712632154965152 0  -0.5 0.1622787344187354 0  -0.5 0.1533162406595534 0  -0.5 0.1443756800160514 0  -0.5 0.1354569980180493 0  -0.5 0.1265601399261414 0  -0.5 0.1176850622761093 0  -0.5 0.1088317009011999 0  -0.5 0.09167500000001694 0  -0.5 0.08335000000003931 0  -0.5 0.07502500000006167 0  -0.5 0.06670000000008947 0  -0.5 0.05837500000011001 0  -0.5 0.0500500000001328 0  -0.5 0.0417250000001127 0  -0.5 0.03340000000008944 0  -0.5 0.02507500000006573 0  -0.5 0.01675000000004653 0  -0.5 0.008425000000027341 
[...]
<PointData  Scalars="f_25"> 
<DataArray  type="Float64"  Name="f_25"  format="ascii">1.0000000000000000e+00  1.3093557216419708e-09  2.0704968744461088e-06  9.9537431949590749e-01  9.0690264159550037e-07  1.2807591424397593e-08  1.0000000000000000e+00  1.0000000000000000e+00  2.0836743799588324e-03  1.1729114106226273e-03  1.1821038724491122e-03  1.1815696202348862e-03  1.4527999498267176e-09  1.8067477679199764e-09  2.2742147076038805e-09  2.7867091011856578e-09  3.2768780701036952e-09  3.7516421797375793e-09  4.2092405766903320e-09  4.6846041246612549e-09  5.1430665951746227e-09  5.6166914675678769e-09  6.1097379498666839e-09  6.6646414087853855e-09  7.2527608602656120e-09  7.8938201157636041e-09  8.6070617104468002e-09  9.4103327500390799e-09  1.0349211218844658e-08  1.1363848166557827e-08  1.2502663446024898e-08  1.3789002098768987e-08  1.5161859684637364e-08  1.6674927977869890e-08  1.8381105953791059e-08  2.0169520128531930e-08  2.2144885331152349e-08  2.4285012576749491e-08  2.6594481183374713e-08  2.9141115102527644e-08  3.1793553704151565e-08  3.4719538413313817e-08  3.7800297019702330e-08  4.1097264642798254e-08  4.4599297527631785e-08  4.8355748343182935e-08  5.2326673117016987e-08  5.6496574842397880e-08  6.0904151025181488e-08  6.5564076407512450e-08  7.0447348520964332e-08  7.5518750536090616e-08  8.0858254188138726e-08  8.6446625626996826e-08  9.2183427838600707e-08  9.8208448744032085e-08  1.0439648046057206e-07  1.1088721699913229e-07  1.1748507578758916e-07  1.2429010767734178e-07  1.3134890486712588e-07  1.3854021380838434e-07  1.4591836610306334e-07  1.5346950488153960e-07  1.6126563400071789e-07  1.6922254437866663e-07  1.7719079584084226e-07  1.8534358521919196e-07  1.9367394270369000e-07  2.0218486470818224e-07  2.1080776351809231e-07  2.1950839856339435e-07  2.2851786107441344e-07  2.3770359189295155e-07  2.4683701552658654e-07  2.5621534202299757e-07  2.6581866506177454e-07  2.7544405190439742e-07  2.8543774897470292e-07  2.9549462636406281e-07  3.0578040564603358e-07  3.1639047796360435e-07  3.2728697345596868e-07  3.3850218311649847e-07  3.5001529973312682e-07  3.6172801312929570e-07  3.7391534522875078e-07  3.8664703639695032e-07  3.9976746039638382e-07  4.1355345326418087e-07  4.2818262343786902e-07  4.4338158914812720e-07  4.5971518120288608e-07  4.7679894546657472e-07  4.9496637961053313e-07  5.1460434536238251e-07  5.3608378197022338e-07  5.5926173914484804e-07  5.8479143552501405e-07  6.1369383033731606e-07  6.4570949793660600e-07  6.8266722251915617e-07  7.2521626264433772e-07  7.7697325528705661e-07  8.3800662225578113e-07  9.1494752069926607e-07  1.0135678767664611e-06  1.1432927605741381e-06  1.3134296678839652e-06  1.5365738572184290e-06  1.8248390632823114e-06  1.9184063884716669e-06  1.6484778484239130e-06  1.4377821134832734e-06  1.2732171189751325e-06  1.1554057644279064e-06  1.0686812045438486e-06  1.0048692161452876e-06  9.5586589551210456e-07  9.1759332943994177e-07  8.8777788686438816e-07  8.6356912993100992e-07  8.4441893913952253e-07  8.2872780375499642e-07  8.1638174420346174e-07  8.0607623594334015e-07  7.9763211913459760e-07  7.9099332787777428e-07  7.8561215440037298e-07  7.8128499818242680e-07  7.7824030707565096e-07  7.7623507965428145e-07  7.7574863956520019e-07  7.7719889738321970e-07  7.8168368693644339e-07  7.9128349283814979e-07  8.0970131581685376e-07  8.4436219752257857e-07  9.0517527954933140e-07  1.0204023885517814e-06  1.2323815040009485e-06  1.6165706190073482e-06  2.3427492342004098e-06  3.6478753069616617e-06  6.0520922898182909e-06  1.0331668101577321e-05  1.8469812372422789e-05  3.3303525381970381e-05  6.0556911285660811e-05  1.0955951639249872e-04  1.9698034798851607e-04  3.5927090202618716e-04  6.5188334349586361e-04  2.0754469835410601e-03  3.6558274235511477e-03  6.4471997761239982e-03  1.1194508767453612e-02  1.9606279320084959e-02  3.4417514815314160e-02  6.0208129686037927e-02  1.0532499017824949e-01  1.8370079126667546e-01  3.2609955870931390e-01  5.7255499518948738e-01  9.8683231649189351e-01  5.7486427916884264e-01  3.3134946471942855e-01  1.8550478934986181e-01  1.0571807926339945e-01  6.0455980092957329e-02  3.4475061700376737e-02  1.9686586678835431e-02  1.1184355936149196e-02  6.4731172379316063e-03  3.6857915478290845e-03  1.1575034902264426e-03  6.3770312940005002e-04  3.4948132701442277e-04  1.9416465727659042e-04  1.0708309995017325e-04  5.8644735741093209e-05  3.2284146175823620e-05  1.7816273538029948e-05  1.0219756321643949e-05  5.9583109268593694e-06  3.6430973772247606e-06  2.3602279564918712e-06  1.6826927309250918e-06  1.3101048808751281e-06  1.1088843864103724e-06  1.0032702948887599e-06  9.4375675301124288e-07  9.1240581801687446e-07  8.9601998803438049e-07  8.8787354591913627e-07  8.8415697823124809e-07  8.8327000408765362e-07  8.8311392383491960e-07  8.8439441082837652e-07  8.8558243379526108e-07  8.8718535600648995e-07  8.8935091935706764e-07  8.9073811991229059e-07  8.9244832671435836e-07  8.9431064078268334e-07  8.9607637643081901e-07  8.9763927692880048e-07  8.9903655102629330e-07  9.0050149754583918e-07  9.0182704145343922e-07  9.0302090094909235e-07  9.0395469388249432e-07  9.0492841060414513e-07  9.0560218694100008e-07  9.0661995370511744e-07  9.0640418405815882e-07  9.0682478248506872e-07  9.0079675764612150e-07  8.8795187683888336e-07  8.7172515398247916e-07  8.5395012855973412e-07  8.3544898767148210e-07  8.1695928981605356e-07  7.9883725118589811e-07  7.8119218493763938e-07  7.6368929986100256e-07  7.4668455479711895e-07  7.3014161760206031e-07  7.1409862318523166e-07  6.9820051304366508e-07  6.8288295977517054e-07  6.6787522783519102e-07  6.5309177239281137e-07  6.3867396413844438e-07  6.2453242053067682e-07  6.1070162016589880e-07  5.9689652601159212e-07  5.8345578258987672e-07  5.7005966982404402e-07  5.5691720743467441e-07  5.4366259805675548e-07  5.3063831633056236e-07  5.1776023312655413e-07  5.0472558111768819e-07  4.9178780464052495e-07  4.7854871391053802e-07  4.6551159000795670e-07  4.5235195375787615e-07  4.3914084675397997e-07  4.2573333708884870e-07  4.1224296849227084e-07  3.9868294331688355e-07  3.8504706081559786e-07  3.7132108928647718e-07  3.5751027483782794e-07  3.4356340743265597e-07  3.2934594485043339e-07  3.1528449945660890e-07  3.0118975175192444e-07  2.8714236109296293e-07  2.7320110582183437e-07  2.5916809236761582e-07  2.4544017498006614e-07  2.3160892133996178e-07  2.1799839653078014e-07  2.0470407749981060e-07  1.9173141657316558e-07  1.7909507919668825e-07  1.6658601110279570e-07  1.5471388842581660e-07  1.4310579334927512e-07  1.3189076406978187e-07  1.2128594116154325e-07  1.1101355403697098e-07  1.0127776443916991e-07  9.2090251010014547e-08  8.3360422323833622e-08  7.5248949969202535e-08  6.7566138067976838e-08  6.0454908044725872e-08  5.3827032278668241e-08  4.7711509461045727e-08  4.2059449924842532e-08  3.6825758768071263e-08  3.2131993827365280e-08  2.7789124611106317e-08  2.3888683500548831e-08  2.0356378798324141e-08  1.7209517634134424e-08  1.4374581985707932e-08  1.1893668287929291e-08  9.6772957864628331e-09  7.7523891824003963e-09  6.1118594290399773e-09  4.6880486694626418e-09  3.5070808890858172e-09  2.5272005765876010e-09  1.7515844665867405e-09  1.1700952691509133e-09  7.6641034379411339e-10  5.3996219824079078e-10  4.7303911889440028e-10  5.5598048105995083e-10  7.7961935758528297e-10  1.1298188980993757e-09  1.5992988408251326e-09  2.1745974660363139e-09  2.8715286945956195e-09  3.6860691036905465e-09  4.6381029201225858e-09  5.7049619658473337e-09  6.9257894660926567e-09  8.2494570398032810e-09  9.6833978906886405e-09  1.1078483115758507e-08  1.2229297801648406e-08  1.2809152523297467e-08  1.2767372984464657e-08  1.2743070871348677e-08  1.2599384511898875e-08  1.2488556799045211e-08  1.2345704118030815e-08  1.2164684610903278e-08  1.1979526996582781e-08  1.1742215410557698e-08  1.1509012530383348e-08  1.1250311034987106e-08  1.0970276892348529e-08  1.0662109171501014e-08  1.0337505752835132e-08  1.0006154384840466e-08  9.6724625790015626e-09  9.3530211565500913e-09  9.0675711866089810e-09  8.8687820008176332e-09  8.8687212306704810e-09  9.2295125639026263e-09  1.0260732470992732e-08  1.2586483173578291e-08  1.7343376714751146e-08  2.6532948479366673e-08  4.3985161548194808e-08  7.6564397402350306e-08  1.3791884922148579e-07  2.5213508420294284e-07  4.6309731849678506e-07  8.5248953042713206e-07  1.5599549892916294e-06  2.8723758905224624e-06  5.2960851062911718e-06  9.6251925310473998e-06  1.7806936734600046e-05  3.2580250491809413e-05  5.9489482330503675e-05  1.0813359506445759e-04  1.9581902951022954e-04  3.5979680586013704e-04  6.5481772096283731e-04  2.0961164398412475e-03  3.6840474287758618e-03  6.4858480517953915e-03  1.1256664934904110e-02  1.9737252544866427e-02  3.4720941309025234e-02  6.0782049334589507e-02  1.0622165161809548e-01  1.8493003603159200e-01  3.2702515526078624e-01  5.7160142369599465e-01  1.0000000000000000e+00  1.0000000000000000e+00  1.0000000000000000e+00  1.0000000000000000e+00  1.0000000000000000e+00  1.0000000000000000e+00  1.0000000000000000e+00  1.0000000000000000e+00  1.0000000000000000e+00  1.0000000000000000e+00  1.0000000000000000e+00  1.0000000000000000e+00  1.0000000000000000e+00  1.0000000000000000e+00  1.0000000000000000e+00  1.0000000000000000e+00  1.0000000000000000e+00  1.0000000000000000e+00  1.0000000000000000e+00  1.0000000000000000e+00  1.0000000000000000e+00  1.0000000000000000e+00  1.0000000000000000e+00  1.0000000000000000e+00  1.0000000000000000e+00  1.0000000000000000e+00  1.0000000000000000e+00  1.0000000000000000e+00  1.0000000000000000e+00  1.0000000000000000e+00  1.0000000000000000e+00  1.0000000000000000e+00  1.0000000000000000e+00  1.0000000000000000e+00  1.0000000000000000e+00  1.0000000000000000e+00  1.0000000000000000e+00  1.0000000000000000e+00  1.0000000000000000e+00  1.0000000000000000e+00  1.0000000000000000e+00  1.0000000000000000e+00  1.0000000000000000e+00  1.0000000000000000e+00  1.0000000000000000e+00  1.0000000000000000e+00  1.0000000000000000e+00  1.0000000000000000e+00  1.0000000000000000e+00  1.0000000000000000e+00  1.0000000000000000e+00  1.0000000000000000e+00  1.0000000000000000e+00  1.0000000000000000e+00  9.9999999999999989e-01  1.0000000000000000e+00  1.0000000000000000e+00  1.0000000000000000e+00  1.0000000000000000e+00  1.0000000000000000e+00  1.0000000000000000e+00  1.0000000000000000e+00  1.0000000000000000e+00  1.0000000000000000e+00  1.0000000000000000e+00  1.0000000000000000e+00  1.0000000000000000e+00  1.0000000000000000e+00  1.0000000000000000e+00  1.0000000000000000e+00  1.0000000000000000e+00  1.0000000000000000e+00  1.0000000000000000e+00  1.0000000000000000e+00  1.0000000000000000e+00  1.0000000000000000e+00  1.0000000000000000e+00  1.0000000000000000e+00  1.0000000000000000e+00  1.0000000000000000e+00  1.0000000000000000e+00  1.0000000000000000e+00  9.9999999999999989e-01  1.0000000000000000e+00  1.0000000000000000e+00  1.0000000000000000e+00  1.0000000000000000e+00  1.0000000000000000e+00  1.0000000000000000e+00  1.0000000000000000e+00  1.0000000000000000e+00  1.0000000000000000e+00  1.0000000000000000e+00  1.0000000000000000e+00  1.0000000000000000e+00  1.0000000000000000e+00  1.0000000000000000e+00  1.0000000000000000e+00  1.0000000000000000e+00  1.0000000000000000e+00  1.0000000000000000e+00  1.0000000000000000e+00  1.0000000000000000e+00  1.0000000000000000e+00  1.0000000000000000e+00  1.0000000000000000e+00  1.0000000000000000e+00  1.0000000000000000e+00  1.0000000000000000e+00  1.0000000000000000e+00  5.7157081540403565e-01  3.2704024577874868e-01  1.8489315724850428e-01  1.0623927487689457e-01  6.0789268492395097e-02  3.4726290618748809e-02  1.9744685351052966e-02  1.1258434686244144e-02  6.4895802497878241e-03  3.6859953963337307e-03  2.0973559565899791e-03  6.5513203727220247e-04  3.5991678105748074e-04  1.9537134451348790e-04  1.0819456912910115e-04  5.9556726047989847e-05  3.2618398730751370e-05  1.7822363523199447e-05  9.6351844834394740e-06  5.2991308935740638e-06  2.8734162876626447e-06  1.5607190423209562e-06  8.5310136581204711e-07  4.6358255179233290e-07  2.5230596180986040e-07  1.3788495259863607e-07  7.6362249132611249e-08  4.3614995874086067e-08  2.5991093993484955e-08  1.6591236109087254e-08  1.1600227894800119e-08  9.0114890136114728e-09  7.6812843322562230e-09  6.9865710188795179e-09  6.6111034887584868e-09  6.3941131698779530e-09  6.2323517375789439e-09  6.0758447130943248e-09  5.8885064088639157e-09  5.6635130666681407e-09  5.4085591445360724e-09  5.1040098157360916e-09  4.7594956948426586e-09  4.3795705809732302e-09  3.9645910204612544e-09  3.5390632712809759e-09  3.1238759139487236e-09  2.6997616032959101e-09  2.2832649642595252e-09  1.9136765960416762e-09  1.5914022358871769e-09  1.4325419591099902e-09  1.3284175205844649e-09  1.1789203837815193e-03  1.1823894986438123e-03  1.1825376870230472e-03  1.1783920431012206e-03  1.1725498268149079e-03  1.1865517879090374e-03  1.1823442708863820e-03  1.1649283194884639e-03  1.1761298038758894e-03  1.1877953851426911e-03  1.1644078982911495e-03  1.1772136283914063e-03  1.1866787955431444e-03  1.1848092800896960e-03  1.1827265916607580e-03  1.1728074019996286e-03  1.1708277584087795e-03  1.1599243874663905e-03  1.1781963888379623e-03  1.1818596265680233e-03  1.1710655366258945e-03  1.1707866116187045e-03  1.1852144759855580e-03  1.1857307485796109e-03  1.1735546919901035e-03  1.1765833361515403e-03  1.1783761458872342e-03  1.1720833372090471e-03  1.1845668944832099e-03  1.1781983618203511e-03  1.1702457497273107e-03  1.1757992158421631e-03  1.1763647163650119e-03  1.1653849098844690e-03  1.1765429701830095e-03  1.1925431504180846e-03  1.1657450009883135e-03  1.1823808436275368e-03  1.1817500290859687e-03  1.1674925738384679e-03  1.1922218848468751e-03  1.1867633735974650e-03  1.1722808928368623e-03  1.1877787686760885e-03  1.1776839003868418e-03  1.1861360830968204e-03  1.2156834537111892e-03  1.2380159744585608e-03  1.2544959163395396e-03  1.3077407888685874e-03  1.3641191425788014e-03  1.4203232526017546e-03  1.5306473158064123e-03  1.6193765854097917e-03  1.7112941271987996e-03  1.8262641201314399e-03  1.9035154195865512e-03  1.9503965309606507e-03  2.0449530837815498e-03  2.0720658455694123e-03  2.0809411074267431e-03  2.1058565493535250e-03  2.0680548981204211e-03  2.0838645976227967e-03  2.0831277008814086e-03  2.0774891554096574e-03  2.0550925062968431e-03  2.0176272267343953e-03  2.0456727818155855e-03  2.0501417488983922e-03  2.0375152887894049e-03  2.0216433200273875e-03  2.0240573465098786e-03  2.0179455264597575e-03  1.9846893050016177e-03  2.0012375522492740e-03  1.9903366366210320e-03  1.9706092339254228e-03  1.9897505150997313e-03  1.9776015446667751e-03  1.9635083879945823e-03  1.9871178380697473e-03  1.9970454046778561e-03  1.9769028638350564e-03  1.9699255322371306e-03  2.0194077981971221e-03  2.0128755457214167e-03  2.0148412747043997e-03  2.0149732538267263e-03  1.9886897471053347e-03  2.0110603283138937e-03  2.0279447730520536e-03  2.0284606366887266e-03  2.0293549253336709e-03  1.9984173063983522e-03  2.0273097544985961e-03  2.0434273756777654e-03  2.0528249905675299e-03  2.0423290632512374e-03  2.0475001546125444e-03  2.0597440602077135e-03  2.0714747329902191e-03  2.0729024600696995e-03  2.0864457200645494e-03  2.0968158968233249e-03  2.0862459676060105e-03  2.0917630388912270e-03  2.0871616576351002e-03  2.0683598727227787e-03  2.0977673408353898e-03  2.1118161377352623e-03  1.1794952507695273e-03  1.1825743078109085e-03  1.1827079791618623e-03  1.1785087239600677e-03  1.1727011165321680e-03  1.1871301525888443e-03  1.1825187707669861e-03  1.1653065549455538e-03  1.1759458945309212e-03  1.1871410289279051e-03  1.1659235512569935e-03  1.1762294662693189e-03  1.1856511111799466e-03  1.1836503844574547e-03  1.1814972696878583e-03  1.1721841222551046e-03  1.1690802077852309e-03  1.1560840682872393e-03  1.1758502205016376e-03  1.1836937933236316e-03  1.1735505256214114e-03  1.1746532232740166e-03  1.1869481723823189e-03  1.1876836996278872e-03  1.1745458669940778e-03  1.1772732039609520e-03  1.1795147512592902e-03  1.1732241113462762e-03  1.1848446316679061e-03  1.1787038523603589e-03  1.1700859429812777e-03  1.1742559520253168e-03  1.1733515287905133e-03  1.1623188004006764e-03  1.1733661271665942e-03  1.1899289952283566e-03  1.1625883541182876e-03  1.1791144215169552e-03  1.1773921390478932e-03  1.1627028432734739e-03  1.1881350213804576e-03  1.1816188060657720e-03  1.1669610254775272e-03  1.1812334038164339e-03  1.1665786681765147e-03  1.1664948070856231e-03  1.1814960997875443e-03  1.1826818443388771e-03  1.1675747977787435e-03  1.1769873420890368e-03  1.1772407430306437e-03  1.1600223243407703e-03  1.1784460837411729e-03  1.1755318417701539e-03  1.1681024526109210e-03  1.1773171395744856e-03  1.1734058893322304e-03  1.1579254448933691e-03  1.1797998418063363e-03  1.1753870062315621e-03  1.1679198395732242e-03  1.1776398137329366e-03  1.1563244059067462e-03  1.1669800549031263e-03  1.1697288071374039e-03  1.1698868326213759e-03  1.1609698917773603e-03  1.1442033740528934e-03  1.1650190215812546e-03  1.1736517367303154e-03  1.1722364546430442e-03  1.1667603955985502e-03  1.1745320758955820e-03  1.1766669220169236e-03  1.1629997259430499e-03  1.1781832863967630e-03  1.1767316067373401e-03  1.1687081290878822e-03  1.1819320128593294e-03  1.1743266662446127e-03  1.1633217420134309e-03  1.1734035452232569e-03  1.1744475151299377e-03  1.1600909228905057e-03  1.1495074297262187e-03  1.1740358514739635e-03  1.1675881316598922e-03  1.1680551259565077e-03  1.1692631293627217e-03  1.1555165371927164e-03  1.1691430147554973e-03  1.1788935125347161e-03  1.1768546594305026e-03  1.1729699929025948e-03  1.1512750020105855e-03  1.1653676014815391e-03  1.1727648073998093e-03  1.1769527844558835e-03  1.1683961210452126e-03  1.1681062146592660e-03  1.1704900032993265e-03  1.1726643090860494e-03  1.1702474047016668e-03  1.1753414274028396e-03  1.1798480806879089e-03  1.1738637095004946e-03  1.1758783488790702e-03  1.1737909714556205e-03  1.1625126850147993e-03  1.1799556170596825e-03  1.1895787868877591e-03  9.9298252528251008e-01  9.9799041769559593e-01  9.9413531798614052e-01  9.9551466847908276e-01  9.9617250068234076e-01  9.9562057284252481e-01  9.9604054980712642e-01  9.9639343692125815e-01  9.9537134138872629e-01  9.9582924713507270e-01  9.9455335948090950e-01  9.9744194864647484e-01  9.9497306404608232e-01  9.9656804182197423e-01  9.9604778809094097e-01  9.9651807308665363e-01  9.9633183828744842e-01  9.9626026599288731e-01  9.9652119050806698e-01  9.9648203857361695e-01  9.9656983408045574e-01  9.9667695391957956e-01  9.9670413918418665e-01  9.9697711469764028e-01  9.9699336270577821e-01  9.9534098917443281e-01  9.9844152492607585e-01  9.9577468315275930e-01  9.9709709350117581e-01  9.9603208545396504e-01  9.9539635440967478e-01  9.9546227277364263e-01  9.9610362057891333e-01  9.9709404806958091e-01  9.9575016458264820e-01  9.9860112759711284e-01  9.9542069747511697e-01  9.9544190120678966e-01  9.9822004685669663e-01  9.9493800443182867e-01  9.9579569764647735e-01  9.9555785675773545e-01  9.9663433232962995e-01  9.9628745168172006e-01  9.9589950236121660e-01  9.9600396879395137e-01  9.9519314760859245e-01  9.9583454143854278e-01  9.9627803246130353e-01  9.9571370046096164e-01  9.9629654654203470e-01  9.9568327662080325e-01  9.9632780449910952e-01  9.9468067294656837e-01  9.9687065716112599e-01  9.7701840102976825e-08  4.7095822056086879e-09  4.0424771611639229e-07  5.9956691877293176e-07  7.5362563115912190e-07  3.0818484839411877e-07  3.5010067876694970e-07  1.0958651456810859e-06  4.9157879731213084e-07  2.2251289307593564e-07  2.5361147581779463e-08  1.6591356417442991e-09  1.8366915917570690e-06  7.1253376363384019e-07  1.6551492199332003e-06  1.5090781028564704e-06  3.2640879621483946e-06  3.6050148893545962e-07  3.6399768962182778e-09  9.4009736437535294e-08  4.8489493048853472e