<?xml version="1.0"?>
<VTKFile type="UnstructuredGrid"  version="0.1"  >
<UnstructuredGrid>
<Piece  NumberOfPoints="15540" NumberOfCells="30546">
<Points>
<DataArray  type="Float64"  NumberOfComponents="3"  format="ascii">0 0 0  -0.5 -0.5 0  0.5 -0.5 0  0.5 0 0  0.5 0.5 0  -0.5 0.5 0  -0.5 0.0001 0  -0.5 -0.0001 0  0.5 0.1 0  0.5 -0.1 0  -0.5 -0.1 0  -0.5 0.1 0  -0.4900000000000277 -0.5 0  -0.4800000000000555 -0.5 0  -0.4700000000000832 -0.5 0  -0.4600000000001109 -0.5 0  -0.4500000000001387 -0.5 0  -0.4400000000001664 -0.5 0  -0.4300000000001942 -0.5 0  -0.4200000000002219 -0.5 0  -0.4100000000002497 -0.5 0  -0.4000000000002774 -0.5 0  -0.3900000000003052 -0.5 0  -0.3800000000003328 -0.5 0  -0.3700000000003606 -0.5 0  -0.3600000000003883 -0.5 0  -0.3500000000004161 -0.5 0  -0.3400000000004438 -0.5 0  -0.3300000000004716 -0.5 0  -0.3200000000004993 -0.5 0  -0.3100000000005271 -0.5 0  -0.3000000000005548 -0.5 0  -0.2900000000005825 -0.5 0  -0.2800000000006103 -0.5 0  -0.2700000000006381 -0.5 0  -0.2600000000006658 -0.5 0  -0.2500000000006935 -0.5 0  -0.2400000000007212 -0.5 0  -0.230000000000749 -0.5 0  -0.2200000000007767 -0.5 0  -0.2100000000008044 -0.5 0  -0.2000000000008322 -0.5 0  -0.19000000000086 -0.5 0  -0.1800000000008877 -0.5 0  -0.1700000000009154 -0.5 0  -0.1600000000009431 -0.5 0  -0.1500000000009709 -0.5 0  -0.1400000000009986 -0.5 0  -0.1300000000010264 -0.5 0  -0.1200000000010541 -0.5 0  -0.1100000000010818 -0.5 0  -0.1000000000011096 -0.5 0  -0.09000000000113734 -0.5 0  -0.08000000000116503 -0.5 0  -0.07000000000119283 -0.5 0  -0.06000000000122058 -0.5 0  -0.05000000000124827 -0.5 0  -0.04000000000127607 -0.5 0  -0.03000000000130376 -0.5 0  -0.02000000000133151 -0.5 0  -0.01000000000135925 -0.5 0  -1.376121439022882e-12 -0.5 0  0.009999999998640763 -0.5 0  0.01999999999866864 -0.5 0  0.02999999999869629 -0.5 0  0.03999999999872406 -0.5 0  0.04999999999875182 -0.5 0  0.05999999999877947 -0.5 0  0.06999999999880724 -0.5 0  0.079999999998835 -0.5 0  0.08999999999886266 -0.5 0  0.09999999999889042 -0.5 0  0.1099999999989182 -0.5 0  0.1199999999989459 -0.5 0  0.1299999999989737 -0.5 0  0.1399999999990014 -0.5 0  0.1499999999990291 -0.5 0  0.1599999999990568 -0.5 0  0.1699999999990847 -0.5 0  0.1799999999991124 -0.5 0  0.1899999999991401 -0.5 0  0.1999999999991678 -0.5 0  0.2099999999991955 -0.5 0  0.2199999999992234 -0.5 0  0.2299999999992511 -0.5 0  0.2399999999992788 -0.5 0  0.2499999999993066 -0.5 0  0.2599999999993342 -0.5 0  0.269999999999362 -0.5 0  0.2799999999993897 -0.5 0  0.2899999999994175 -0.5 0  0.2999999999994452 -0.5 0  0.3099999999994729 -0.5 0  0.3199999999995007 -0.5 0  0.3299999999995284 -0.5 0  0.3399999999995562 -0.5 0  0.3499999999995839 -0.5 0  0.3599999999996116 -0.5 0  0.3699999999996393 -0.5 0  0.379999999999667 -0.5 0  0.3899999999996949 -0.5 0  0.3999999999997226 -0.5 0  0.4099999999997503 -0.5 0  0.419999999999778 -0.5 0  0.4299999999998058 -0.5 0  0.4399999999998336 -0.5 0  0.4499999999998613 -0.5 0  0.4599999999998891 -0.5 0  0.4699999999999167 -0.5 0  0.4799999999999445 -0.5 0  0.4899999999999722 -0.5 0  0.5 -0.4902110204681464 0  0.5 -0.4804459958734807 0  0.5 -0.4707048677450883 0  0.5 -0.4609875815766065 0  0.5 -0.4512940759251849 0  0.5 -0.4416242912883993 0  0.5 -0.4319781678689807 0  0.5 -0.4223556545383647 0  0.5 -0.4127566896324213 0  0.5 -0.4031812128200121 0  0.5 -0.3936291733057916 0  0.5 -0.3841005081172659 0  0.5 -0.3745951585781932 0  0.5 -0.3651130778999337 0  0.5 -0.3556541993788045 0  0.5 -0.3462184677228392 0  0.5 -0.3368058273705318 0  0.5 -0.3274162224888609 0  0.5 -0.3180495969712945 0  0.5 -0.3087058944357755 0  0.5 -0.299385058222682 0  0.5 -0.2900870313927414 0  0.5 -0.2808117567250807 0  0.5 -0.2715591844628491 0  0.5 -0.2623292564012653 0  0.5 -0.253121909553727 0  0.5 -0.2439371050851549 0  0.5 -0.2347747685524501 0  0.5 -0.2256348634421331 0  0.5 -0.2165173209784076 0  0.5 -0.207422087829958 0  0.5 -0.1983491207029381 0  0.5 -0.1892983550950482 0  0.5 -0.1802697378305253 0  0.5 -0.1712632154965152 0  0.5 -0.1622787344187354 0  0.5 -0.1533162406595534 0  0.5 -0.1443756800160514 0  0.5 -0.1354569980180493 0  0.5 -0.1265601399261414 0  0.5 -0.1176850622761093 0  0.5 -0.1088317009011999 0  0.5 -0.09166666666668973 0  0.5 -0.08333333333337943 0  0.5 -0.07500000000006915 0  0.5 -0.06666666666675886 0  0.5 -0.05833333333344858 0  0.5 -0.05000000000013693 0  0.5 -0.04166666666678191 0  0.5 -0.03333333333342643 0  0.5 -0.02500000000006916 0  0.5 -0.01666666666671188 0  0.5 -0.00833333333335548 0  0.5 0.008333333333318314 0  0.5 0.01666666666663358 0  0.5 0.02499999999994162 0  0.5 0.03333333333325101 0  0.5 0.04166666666655769 0  0.5 0.04999999999986843 0  0.5 0.05833333333322258 0  0.5 0.06666666666657715 0  0.5 0.07499999999993352 0  0.5 0.08333333333328992 0  0.5 0.09166666666664541 0  0.5 0.1088317009011616 0  0.5 0.1176850622760307 0  0.5 0.1265601399260203 0  0.5 0.1354569980178909 0  0.5 0.1443756800158549 0  0.5 0.153316240659315 0  0.5 0.1622787344184454 0  0.5 0.1712632154961752 0  0.5 0.1802697378301332 0  0.5 0.1892983550946039 0  0.5 0.1983491207024433 0  0.5 0.2074220878294123 0  0.5 0.216517320977811 0  0.5 0.2256348634414833 0  0.5 0.2347747685517479 0  0.5 0.2439371050844009 0  0.5 0.2531219095529224 0  0.5 0.2623292564004089 0  0.5 0.2715591844619371 0  0.5 0.2808117567241139 0  0.5 0.290087031391723 0  0.5 0.2993850582216101 0  0.5 0.3087058944347426 0  0.5 0.3180495969703129 0  0.5 0.3274162224879299 0  0.5 0.3368058273696494 0  0.5 0.3462184677220051 0  0.5 0.3556541993780186 0  0.5 0.3651130778991989 0  0.5 0.3745951585775107 0  0.5 0.3841005081166359 0  0.5 0.3936291733052134 0  0.5 0.4031812128194852 0  0.5 0.412756689631945 0  0.5 0.4223556545379392 0  0.5 0.431978167868607 0  0.5 0.4416242912880781 0  0.5 0.4512940759249164 0  0.5 0.4609875815763912 0  0.5 0.4707048677449264 0  0.5 0.4804459958733726 0  0.5 0.4902110204680924 0  0.4900000000000277 0.5 0  0.4800000000000555 0.5 0  0.4700000000000832 0.5 0  0.4600000000001109 0.5 0  0.4500000000001387 0.5 0  0.4400000000001664 0.5 0  0.4300000000001942 0.5 0  0.4200000000002219 0.5 0  0.4100000000002497 0.5 0  0.4000000000002774 0.5 0  0.3900000000003052 0.5 0  0.3800000000003328 0.5 0  0.3700000000003606 0.5 0  0.3600000000003883 0.5 0  0.3500000000004161 0.5 0  0.3400000000004438 0.5 0  0.3300000000004716 0.5 0  0.3200000000004993 0.5 0  0.3100000000005271 0.5 0  0.3000000000005548 0.5 0  0.2900000000005825 0.5 0  0.2800000000006103 0.5 0  0.2700000000006381 0.5 0  0.2600000000006658 0.5 0  0.2500000000006935 0.5 0  0.2400000000007212 0.5 0  0.230000000000749 0.5 0  0.2200000000007767 0.5 0  0.2100000000008044 0.5 0  0.2000000000008322 0.5 0  0.19000000000086 0.5 0  0.1800000000008877 0.5 0  0.1700000000009154 0.5 0  0.1600000000009431 0.5 0  0.1500000000009709 0.5 0  0.1400000000009986 0.5 0  0.1300000000010264 0.5 0  0.1200000000010541 0.5 0  0.1100000000010818 0.5 0  0.1000000000011096 0.5 0  0.09000000000113734 0.5 0  0.08000000000116503 0.5 0  0.07000000000119283 0.5 0  0.06000000000122058 0.5 0  0.05000000000124827 0.5 0  0.04000000000127607 0.5 0  0.03000000000130376 0.5 0  0.02000000000133151 0.5 0  0.01000000000135925 0.5 0  1.376121439022882e-12 0.5 0  -0.009999999998640763 0.5 0  -0.01999999999866864 0.5 0  -0.02999999999869629 0.5 0  -0.03999999999872406 0.5 0  -0.04999999999875182 0.5 0  -0.05999999999877947 0.5 0  -0.06999999999880724 0.5 0  -0.079999999998835 0.5 0  -0.08999999999886266 0.5 0  -0.09999999999889042 0.5 0  -0.1099999999989182 0.5 0  -0.1199999999989459 0.5 0  -0.1299999999989737 0.5 0  -0.1399999999990014 0.5 0  -0.1499999999990291 0.5 0  -0.1599999999990568 0.5 0  -0.1699999999990847 0.5 0  -0.1799999999991124 0.5 0  -0.1899999999991401 0.5 0  -0.1999999999991678 0.5 0  -0.2099999999991955 0.5 0  -0.2199999999992234 0.5 0  -0.2299999999992511 0.5 0  -0.2399999999992788 0.5 0  -0.2499999999993066 0.5 0  -0.2599999999993342 0.5 0  -0.269999999999362 0.5 0  -0.2799999999993897 0.5 0  -0.2899999999994175 0.5 0  -0.2999999999994452 0.5 0  -0.3099999999994729 0.5 0  -0.3199999999995007 0.5 0  -0.3299999999995284 0.5 0  -0.3399999999995562 0.5 0  -0.3499999999995839 0.5 0  -0.3599999999996116 0.5 0  -0.3699999999996393 0.5 0  -0.379999999999667 0.5 0  -0.3899999999996949 0.5 0  -0.3999999999997226 0.5 0  -0.4099999999997503 0.5 0  -0.419999999999778 0.5 0  -0.4299999999998058 0.5 0  -0.4399999999998336 0.5 0  -0.4499999999998613 0.5 0  -0.4599999999998891 0.5 0  -0.4699999999999167 0.5 0  -0.4799999999999445 0.5 0  -0.4899999999999722 0.5 0  -0.5 0.4902110204681464 0  -0.5 0.4804459958734807 0  -0.5 0.4707048677450883 0  -0.5 0.4609875815766065 0  -0.5 0.4512940759251849 0  -0.5 0.4416242912883993 0  -0.5 0.4319781678689807 0  -0.5 0.4223556545383647 0  -0.5 0.4127566896324213 0  -0.5 0.4031812128200121 0  -0.5 0.3936291733057916 0  -0.5 0.3841005081172659 0  -0.5 0.3745951585781932 0  -0.5 0.3651130778999337 0  -0.5 0.3556541993788045 0  -0.5 0.3462184677228392 0  -0.5 0.3368058273705318 0  -0.5 0.3274162224888609 0  -0.5 0.3180495969712945 0  -0.5 0.3087058944357755 0  -0.5 0.299385058222682 0  -0.5 0.2900870313927414 0  -0.5 0.2808117567250807 0  -0.5 0.2715591844628491 0  -0.5 0.2623292564012653 0  -0.5 0.253121909553727 0  -0.5 0.2439371050851549 0  -0.5 0.2347747685524501 0  -0.5 0.2256348634421331 0  -0.5 0.2165173209784076 0  -0.5 0.207422087829958 0  -0.5 0.1983491207029381 0  -0.5 0.1892983550950482 0  -0.5 0.1802697378305253 0  -0.5 0.1712632154965152 0  -0.5 0.1622787344187354 0  -0.5 0.1533162406595534 0  -0.5 0.1443756800160514 0  -0.5 0.1354569980180493 0  -0.5 0.1265601399261414 0  -0.5 0.1176850622761093 0  -0.5 0.1088317009011999 0  -0.5 0.09167500000001694 0  -0.5 0.08335000000003931 0  -0.5 0.07502500000006167 0  -0.5 0.06670000000008947 0  -0.5 0.05837500000011001 0  -0.5 0.0500500000001328 0  -0.5 0.0417250000001127 0  -0.5 0.03340000000008944 0  -0.5 0.02507500000006573 0  -0.5 0.01675000000004653 0  -0.5 0.008425000000027341 
[...]
<PointData  Scalars="f_25"> 
<DataArray  type="Float64"  Name="f_25"  format="ascii">1.0000000000000000e+00  1.8922937416020983e-09  3.0217419073855456e-06  9.9479027439815793e-01  1.3239234186051036e-06  1.8711157347653819e-08  1.0000000000000000e+00  1.0000000000000000e+00  2.0817545117418506e-03  1.1727041461929121e-03  1.1821040272776346e-03  1.1815697530075206e-03  2.1034595124168780e-09  2.6179962382248163e-09  3.2951034094583117e-09  4.0370473076195645e-09  4.7461548020792761e-09  5.4328879865976876e-09  6.0948374304460521e-09  6.7826899841417150e-09  7.4462241577515042e-09  8.1317508270119167e-09  8.8453632049895972e-09  9.6485366580173335e-09  1.0499856816023146e-08  1.1428108277264203e-08  1.2461298409557949e-08  1.3625382180543325e-08  1.4986540393042441e-08  1.6457971818126014e-08  1.8109959675112150e-08  1.9976446893173700e-08  2.1968938048328619e-08  2.4165351955484761e-08  2.6642616368047819e-08  2.9239719197528105e-08  3.2108810691567440e-08  3.5217704195111170e-08  3.8573137825575225e-08  4.2273835699981512e-08  4.6128816522995024e-08  5.0381973651527230e-08  5.4860744889462696e-08  5.9654535236049614e-08  6.4747233231037503e-08  7.0210750771113635e-08  7.5987157023215060e-08  8.2053820723706125e-08  8.8467145596894553e-08  9.5248806525922379e-08  1.0235645693586375e-07  1.0973906593956191e-07  1.1751301144006177e-07  1.2565085022702127e-07  1.3400598276366768e-07  1.4278239966045462e-07  1.5179715891922695e-07  1.6125474297705461e-07  1.7086931835864300e-07  1.8078807959754438e-07  1.9107846581946918e-07  2.0156332008431110e-07  2.1232195876903738e-07  2.2333511077446669e-07  2.3470753093977726e-07  2.4631520775194087e-07  2.5794180654997874e-07  2.6983988224039296e-07  2.8199790922903945e-07  2.9442124773560548e-07  3.0700998304242067e-07  3.1971413783304867e-07  3.3287043968597582e-07  3.4628498373875199e-07  3.5962562094230360e-07  3.7332477178292463e-07  3.8735347656898755e-07  4.0141650785942232e-07  4.1601774761868215e-07  4.3071300262430972e-07  4.4574303083978245e-07  4.6124714910128504e-07  4.7717025980995891e-07  4.9355952314784669e-07  5.1038403506889027e-07  5.2750063217307254e-07  5.4531015581107755e-07  5.6391464674055613e-07  5.8308702538141356e-07  6.0323087903668224e-07  6.2460559619827759e-07  6.4681181665582254e-07  6.7067429738220290e-07  6.9563142058283798e-07  7.2216985215196063e-07  7.5085458434251035e-07  7.8222703003223353e-07  8.1607786127231332e-07  8.5336087808367819e-07  8.9556652742599624e-07  9.4231503462160791e-07  9.9627624969271310e-07  1.0583963853678006e-06  1.1339555618157075e-06  1.2230508439687394e-06  1.3353605173839270e-06  1.4793054469158055e-06  1.6686411442412129e-06  1.9169441986644040e-06  2.2425931771461450e-06  2.6632618191364821e-06  2.7998210287659074e-06  2.4059654339935690e-06  2.0985609680365202e-06  1.8584714936307534e-06  1.6866062815924374e-06  1.5601005281039056e-06  1.4670253142597323e-06  1.3955549577355979e-06  1.3397388698595990e-06  1.2962595652742025e-06  1.2609583714334036e-06  1.2330338885344983e-06  1.2101517806237738e-06  1.1921440326274645e-06  1.1771062051191660e-06  1.1647739653260536e-06  1.1550547628018170e-06  1.1471400531411289e-06  1.1407142694096579e-06  1.1360582623672263e-06  1.1327499304242659e-06  1.1313248386526829e-06  1.1321283855022959e-06  1.1362519212320290e-06  1.1457705127937038e-06  1.1643667066922139e-06  1.1994604157229977e-06  1.2609943851619162e-06  1.3771135652068940e-06  1.5903769006662430e-06  1.9760598682942971e-06  2.7039859752425906e-06  4.0109058852806602e-06  6.4167696432477887e-06  1.0697671481130393e-05  1.8835510329998795e-05  3.3666093394507188e-05  6.0910435307516106e-05  1.0989309838018499e-04  1.9727459134534755e-04  3.5948495491625482e-04  6.5194793679209978e-04  2.0747595130014957e-03  3.6542921312414192e-03  6.4441589844363772e-03  1.1188900259577358e-02  1.9596118178641538e-02  3.4399346113425273e-02  6.0176063683664738e-02  1.0526880622502235e-01  1.8360337389031212e-01  3.2592841748725010e-01  5.7226009821569579e-01  9.8520355003044879e-01  5.7392089691586701e-01  3.3082174809731296e-01  1.8522985020380736e-01  1.0556937908210370e-01  6.0374964396042147e-02  3.4431026883513287e-02  1.9662437907175239e-02  1.1171195617083459e-02  6.4658899841358161e-03  3.6819699148399570e-03  1.1566574705959688e-03  6.3744465375110558e-04  3.4953989110226880e-04  1.9438805876466285e-04  1.0739553167626546e-04  5.9004128810949747e-05  3.2667153662501713e-05  1.8210964137233609e-05  1.0619220368691703e-05  6.3598731559092238e-06  4.0452034646426902e-06  2.7621386320889013e-06  2.0843076875404093e-06  1.7113384975181582e-06  1.5101845980239869e-06  1.4044411713569022e-06  1.3451189180891314e-06  1.3140863854658015e-06  1.2981568312690614e-06  1.2905850916426846e-06  1.2875121719038023e-06  1.2875093976713186e-06  1.2879900993291781e-06  1.2902672390267254e-06  1.2922353648675784e-06  1.2947246431732083e-06  1.2979825085192191e-06  1.3000737160252172e-06  1.3026198018883933e-06  1.3053767322998854e-06  1.3079858887833982e-06  1.3102930788871925e-06  1.3123545523969557e-06  1.3145113016819552e-06  1.3164617644188879e-06  1.3182177511806065e-06  1.3195916289127688e-06  1.3210222517300671e-06  1.3220129303067256e-06  1.3235047395608415e-06  1.3231925649549954e-06  1.3238090643341799e-06  1.3149996979517711e-06  1.2962283311987482e-06  1.2725165321589179e-06  1.2465444071311087e-06  1.2195136656749184e-06  1.1925019035380989e-06  1.1660292954993619e-06  1.1402550281974722e-06  1.1146895761966702e-06  1.0898523815215458e-06  1.0656897369395711e-06  1.0422570153794049e-06  1.0190349446884811e-06  9.9665955450366183e-07  9.7473512382229979e-07  9.5313604519443866e-07  9.3206860482073392e-07  9.1140218952126934e-07  8.9118696842121370e-07  8.7100628349921499e-07  8.5135511395194214e-07  8.3176604997623745e-07  8.1254492803276766e-07  7.9315705139635619e-07  7.7410345166896275e-07  7.5526192285288969e-07  7.3618949028928974e-07  7.1725720074450550e-07  6.9788330021287813e-07  6.7880451085414518e-07  6.5954660029798476e-07  6.4021421095771931e-07  6.2059554750385509e-07  6.0085730859100577e-07  5.8101945665162423e-07  5.6107311789939431e-07  5.4099827560232225e-07  5.2080305609290006e-07  5.0041305853160989e-07  4.7963198783055119e-07  4.5908315330511573e-07  4.3849053319774813e-07  4.1797242864114417e-07  3.9761431170005917e-07  3.7712735058307356e-07  3.5709122459776129e-07  3.3690957064373264e-07  3.1705527358736781e-07  2.9766752531274972e-07  2.7875405960199006e-07  2.6033584062867665e-07  2.4210790421473033e-07  2.2481271687273986e-07  2.0790664528554277e-07  1.9157727932295124e-07  1.7614043420777168e-07  1.6119112627927649e-07  1.4702652805154176e-07  1.3366274010945498e-07  1.2096786494718346e-07  1.0917517104450412e-07  9.8008310200630103e-08  8.7674641570343379e-08  7.8045667240676556e-08  6.9163178468751268e-08  6.0955787448975149e-08  5.3357695365171751e-08  4.6545047795653089e-08  4.0243171127015816e-08  3.4584739177394733e-08  2.9461595826178754e-08  2.4898619776540914e-08  2.0789215926379385e-08  1.7194023109417310e-08  1.3983255976282446e-08  1.1195756928595447e-08  8.8211193331745781e-09  6.7612632067379995e-09  5.0538517238316748e-09  3.6384100569211700e-09  2.5196754862414986e-09  1.6825942347423854e-09  1.1036614572689554e-09  7.8202027140512180e-10  6.9172304205262663e-10  8.1893262812885378e-10  1.1500922723865702e-09  1.6648375603171902e-09  2.3527172755169545e-09  3.1942568807308127e-09  4.2127062500760213e-09  5.4022620602581498e-09  6.7919965823597591e-09  8.3489168260423530e-09  1.0130235642278162e-08  1.2061404590746347e-08  1.4153361544210437e-08  1.6188586273194255e-08  1.7867478652826660e-08  1.8713347847180323e-08  1.8652145307089188e-08  1.8616287834101614e-08  1.8406077418299843e-08  1.8243626306025785e-08  1.8034289247784845e-08  1.7769129731000041e-08  1.7497777865847300e-08  1.7150134454352104e-08  1.6808204729850862e-08  1.6428686019499582e-08  1.6017427022233845e-08  1.5563923616742309e-08  1.5084362448127543e-08  1.4590962493100636e-08  1.4086907292166715e-08  1.3589904932266854e-08  1.3116017925234756e-08  1.2720849856433615e-08  1.2521762220656177e-08  1.2680551289697514e-08  1.3500641607928504e-08  1.5615336738408819e-08  2.0160703192141575e-08  2.9135988368492925e-08  4.6378300506727928e-08  7.8758746786361277e-08  1.3991173412967879e-07  2.5393076403168948e-07  4.6470277221451435e-07  8.5390889193243235e-07  1.5612033401382042e-06  2.8734642818271794e-06  5.2970201729748301e-06  9.6259877653480342e-06  1.7807609544920080e-05  3.2580809644559848e-05  5.9489939485173697e-05  1.0813396376916219e-04  1.9581931999273667e-04  3.5979703517455394e-04  6.5481789807406111e-04  2.0961165415371019e-03  3.6840475046269598e-03  6.4858481073484624e-03  1.1256664975359106e-02  1.9737252573405556e-02  3.4720941329133878e-02  6.0782049348679548e-02  1.0622165162761009e-01  1.8493003603769986e-01  3.2702515526453108e-01  5.7160142369775657e-01  1.0000000000000000e+00  1.0000000000000000e+00  1.0000000000000000e+00  1.0000000000000000e+00  1.0000000000000000e+00  1.0000000000000000e+00  1.0000000000000000e+00  1.0000000000000000e+00  1.0000000000000000e+00  1.0000000000000000e+00  1.0000000000000000e+00  1.0000000000000000e+00  1.0000000000000000e+00  1.0000000000000000e+00  1.0000000000000000e+00  1.0000000000000000e+00  1.0000000000000000e+00  1.0000000000000000e+00  1.0000000000000000e+00  1.0000000000000000e+00  1.0000000000000000e+00  1.0000000000000000e+00  1.0000000000000000e+00  1.0000000000000000e+00  1.0000000000000000e+00  1.0000000000000000e+00  1.0000000000000000e+00  1.0000000000000000e+00  1.0000000000000000e+00  1.0000000000000000e+00  1.0000000000000000e+00  1.0000000000000000e+00  1.0000000000000000e+00  1.0000000000000000e+00  1.0000000000000000e+00  1.0000000000000000e+00  1.0000000000000000e+00  1.0000000000000000e+00  1.0000000000000000e+00  1.0000000000000000e+00  1.0000000000000000e+00  1.0000000000000000e+00  1.0000000000000000e+00  1.0000000000000000e+00  1.0000000000000000e+00  1.0000000000000000e+00  1.0000000000000000e+00  1.0000000000000000e+00  1.0000000000000000e+00  1.0000000000000000e+00  1.0000000000000000e+00  1.0000000000000000e+00  1.0000000000000000e+00  1.0000000000000000e+00  1.0000000000000000e+00  1.0000000000000000e+00  1.0000000000000000e+00  1.0000000000000000e+00  1.0000000000000000e+00  1.0000000000000000e+00  1.0000000000000000e+00  1.0000000000000000e+00  9.9999999999999989e-01  1.0000000000000000e+00  1.0000000000000000e+00  1.0000000000000000e+00  1.0000000000000000e+00  1.0000000000000000e+00  1.0000000000000000e+00  9.9999999999999989e-01  1.0000000000000000e+00  1.0000000000000000e+00  1.0000000000000000e+00  1.0000000000000000e+00  1.0000000000000000e+00  1.0000000000000000e+00  1.0000000000000000e+00  1.0000000000000000e+00  1.0000000000000000e+00  1.0000000000000000e+00  1.0000000000000000e+00  1.0000000000000000e+00  1.0000000000000000e+00  1.0000000000000000e+00  1.0000000000000000e+00  1.0000000000000000e+00  1.0000000000000000e+00  1.0000000000000000e+00  1.0000000000000000e+00  1.0000000000000000e+00  1.0000000000000000e+00  1.0000000000000000e+00  1.0000000000000000e+00  1.0000000000000000e+00  1.0000000000000000e+00  1.0000000000000000e+00  1.0000000000000000e+00  1.0000000000000000e+00  1.0000000000000000e+00  1.0000000000000000e+00  1.0000000000000000e+00  1.0000000000000000e+00  1.0000000000000000e+00  1.0000000000000000e+00  1.0000000000000000e+00  1.0000000000000000e+00  1.0000000000000000e+00  1.0000000000000000e+00  1.0000000000000000e+00  1.0000000000000000e+00  5.7157081540614429e-01  3.2704024578322882e-01  1.8489315725580935e-01  1.0623927488826836e-01  6.0789268509223976e-02  3.4726290642740833e-02  1.9744685385064461e-02  1.1258434734300658e-02  6.4895803155226592e-03  3.6859954856285375e-03  2.0973560756814029e-03  6.5513224215418755e-04  3.5991704417625089e-04  1.9537167583086738e-04  1.0819498457716002e-04  5.9557236126999971e-05  3.2619015846377230e-05  1.7823097597380805e-05  9.6360423983968599e-06  5.3001256979503335e-06  2.8745582234399008e-06  1.5620111148134510e-06  8.5454565441707854e-07  4.6518809730904657e-07  2.5406894763460597e-07  1.3980189757816298e-07  7.8429506416398620e-08  4.5816543601386242e-08  2.8325236767307079e-08  1.9046351362570091e-08  1.4160372315361514e-08  1.1662483168322585e-08  1.0404935638081933e-08  9.7601792276148443e-09  9.4113562065442842e-09  9.2000120019416876e-09  9.0216641861736249e-09  8.8246460241600458e-09  8.5690486665085169e-09  8.2513185589940592e-09  7.8859369925762559e-09  7.4461457977039992e-09  6.9468042731233424e-09  6.3950822886239340e-09  5.7916495298503714e-09  5.1722714599750252e-09  4.5670513045547082e-09  3.9481246191793389e-09  3.3392398911156055e-09  2.7973087517189042e-09  2.3229026368046787e-09  2.0841316017030884e-09  1.9245680157402489e-09  1.1789205289260739e-03  1.1823896760880519e-03  1.1825379123080876e-03  1.1783923295772068e-03  1.1725501856718298e-03  1.1865522293395363e-03  1.1823448043560313e-03  1.1649289510790002e-03  1.1761305419174220e-03  1.1877962325021556e-03  1.1644088572292880e-03  1.1772147017072017e-03  1.1866799811037472e-03  1.1848105749960828e-03  1.1827279917832544e-03  1.1728089013045098e-03  1.1708293496073064e-03  1.1599260618357201e-03  1.1781981382703362e-03  1.1818614373005315e-03  1.1710673977009826e-03  1.1707885096326651e-03  1.1852163952608742e-03  1.1857326713573379e-03  1.1735566072212243e-03  1.1765852242378496e-03  1.1783779896711193e-03  1.1720851279332465e-03  1.1845686145652403e-03  1.1782000011160512e-03  1.1702473036594892e-03  1.1758006766648362e-03  1.1763660898431345e-03  1.1653861929000770e-03  1.1765441609382934e-03  1.1925442476752781e-03  1.1657459322327887e-03  1.1823814637931269e-03  1.1817500934396964e-03  1.1674914180711104e-03  1.1922183717654681e-03  1.1867555668248046e-03  1.1722652703774472e-03  1.1877488685597629e-03  1.1776313965310031e-03  1.1860442088701775e-03  1.2155306116074240e-03  1.2377746017747488e-03  1.2541242540609686e-03  1.3071874783441829e-03  1.3633462111378436e-03  1.4192816192032743e-03  1.5292722593196765e-03  1.6177168314657662e-03  1.7093660538354271e-03  1.8240872495392387e-03  1.9012183311229829e-03  1.9480899436097080e-03  2.0426325236153624e-03  2.0698504018563527e-03  2.0788779796689070e-03  2.1039053799656142e-03  2.0662563576257613e-03  2.0821266812799909e-03  2.0814311953599560e-03  2.0758134016027989e-03  2.0534432715339141e-03  2.0160255834220475e-03  2.0440696571543183e-03  2.0485793422687281e-03  2.0360133829478416e-03  2.0202125738654061e-03  2.0226758196573002e-03  2.0166020860928860e-03  1.9833889138627880e-03  1.9999231755449343e-03  1.9890086533111847e-03  1.9692524179339681e-03  1.9883160148878158e-03  1.9761145503712440e-03  1.9619711131324854e-03  1.9855123652470566e-03  1.9954160914271951e-03  1.9753068943212560e-03  1.9683675388316628e-03  2.0178389822567136e-03  2.0113372047009881e-03  2.0133044716282985e-03  2.0134157136266258e-03  1.9871162811449538e-03  2.0094193306043470e-03  2.0262464864274467e-03  2.0267476023903483e-03  2.0276581396043926e-03  1.9967992372455822e-03  2.0257318098914063e-03  2.0419168001065248e-03  2.0513828793408246e-03  2.0409580157369879e-03  2.0461625500086673e-03  2.0584129239175110e-03  2.0701297645902357e-03  2.0715363279928930e-03  2.0850331857119940e-03  2.0953420388353391e-03  2.0847163690792822e-03  2.0901411169078352e-03  2.0854552904292683e-03  2.0665887726427955e-03  2.0958865026651954e-03  2.1098753153962805e-03  1.1794954185290133e-03  1.1825745095528273e-03  1.1827082309885781e-03  1.1785090393720123e-03  1.1727015065688500e-03  1.1871306269330443e-03  1.1825193379767520e-03  1.1653072200886933e-03  1.1759466646159905e-03  1.1871419054748495e-03  1.1659245354061030e-03  1.1762305597551967e-03  1.1856523110264380e-03  1.1836516869199454e-03  1.1814986704802330e-03  1.1721856158295122e-03  1.1690817872302671e-03  1.1560857253794478e-03  1.1758519482410314e-03  1.1836955790812096e-03  1.1735523598966676e-03  1.1746550941042707e-03  1.1869500642164811e-03  1.1876855971590390e-03  1.1745477607648790e-03  1.1772750748962116e-03  1.1795165823917100e-03  1.1732258940609604e-03  1.1848463475938621e-03  1.1787054914065632e-03  1.1700875005167444e-03  1.1742574204652741e-03  1.1733529208702545e-03  1.1623201281604218e-03  1.1733674259611258e-03  1.1899303397356830e-03  1.1625898027369415e-03  1.1791161143475456e-03  1.1773942662885704e-03  1.1627056187696785e-03  1.1881387780295835e-03  1.1816239527813737e-03  1.1669680324103565e-03  1.1812427649399984e-03  1.1665910515534651e-03  1.1665105595529107e-03  1.1815154782441981e-03  1.1827047623035553e-03  1.1675999859076017e-03  1.1770121729344767e-03  1.1772623264437636e-03  1.1600344386232182e-03  1.1784382082378570e-03  1.1755007334852130e-03  1.1680374770530674e-03  1.1772057790815861e-03  1.1732531320442082e-03  1.1577304826163469e-03  1.1795500017094443e-03  1.1751019020170461e-03  1.1676051443409734e-03  1.1772964236860131e-03  1.1559751118041292e-03  1.1666137600955793e-03  1.1693548375117577e-03  1.1695107102315200e-03  1.1605999179972730e-03  1.1438457739654311e-03  1.1646539693197502e-03  1.1732872128624834e-03  1.1718770293017771e-03  1.1664090456525379e-03  1.1741821632476610e-03  1.1763209978648012e-03  1.1626664310309988e-03  1.1778487955167276e-03  1.1764041353443668e-03  1.1683910588467944e-03  1.1816150904114388e-03  1.1740181843702688e-03  1.1630217309691597e-03  1.1731000718549552e-03  1.1741428836175361e-03  1.1597898344222974e-03  1.1492076991113202e-03  1.1737203790615773e-03  1.1672736620228518e-03  1.1677404152993954e-03  1.1689499361962328e-03  1.1552135476760169e-03  1.1688359456451438e-03  1.1785823591381167e-03  1.1765422250260298e-03  1.1726536018021535e-03  1.1509608800712803e-03  1.1650356767879272e-03  1.1724175420614526e-03  1.1765923135776423e-03  1.1680303986566893e-03  1.1677331760467547e-03  1.1701107417134492e-03  1.1722815997392206e-03  1.1698677573344252e-03  1.1749647017683471e-03  1.1794793825463902e-03  1.1735142536080157e-03  1.1755493022522167e-03  1.1734893452902992e-03  1.1622470261417072e-03  1.1797101279671721e-03  1.1893519135076989e-03  9.9211484126589466e-01  9.9765863854176762e-01  9.9340198056394491e-01  9.9488621162155233e-01  9.9561552506635720e-01  9.9503255056849493e-01  9.9549980827629070e-01  9.9589170442189601e-01  9.9473710052922704e-01  9.9523322403819625e-01  9.9385719347270007e-01  9.9706586135286923e-01  9.9432582871927855e-01  9.9608346611030296e-01  9.9551536674903462e-01  9.9601544513901730e-01  9.9583620638500769e-01  9.9575600859440649e-01  9.9601960398746969e-01  9.9600462342619678e-01  9.9610176694799457e-01  9.9620128664915841e-01  9.9626101650211096e-01  9.9656145219323267e-01  9.9656424610619720e-01  9.9474863365625665e-01  9.9818024062480548e-01  9.9522824031238977e-01  9.9669316419299470e-01  9.9548460838940178e-01  9.9475417804255106e-01  9.9482779809408994e-01  9.9556571434564078e-01  9.9669041520006130e-01  9.9519731817447676e-01  9.9836379378411610e-01  9.9483293881651125e-01  9.9482995936379848e-01  9.9792684415497079e-01  9.9428215430529032e-01  9.9520647234261783e-01  9.9494957210935009e-01  9.9615841822565920e-01  9.9577827083023507e-01  9.9534481209551395e-01  9.9542410821295624e-01  9.9453916464959846e-01  9.9525928411680342e-01  9.9576103813997974e-01  9.9513570685761310e-01  9.9575681505841540e-01  9.9509845956537457e-01  9.9580916939409458e-01  9.9399162023820264e-01  9.9644257600000463e-01  1.4085360117610983e-07  5.9160334215860413e-09  5.8713979889031687e-07  8.7338513469853710e-07  8.8502449513839642e-07  3.1367617975781655e-07  3.5178611290496395e-07  1.3377821046443335e-06  7.1704175165529954e-07  3.2349686923007339e-07  3.6700734277232924e-08  2.4345119881661597e-09  2.1355529966045915e-06  1.0400846051318639e-06  1.6964638502261895e-06  1.5102990025575869e-06  3.4830262014387495e-06  5.2510662150265841e-07  5.2526255556313221e-09  1.3641065379709228e-07  5.1092541894868763e