<?xml version="1.0"?>
<VTKFile type="UnstructuredGrid"  version="0.1"  >
<UnstructuredGrid>
<Piece  NumberOfPoints="15540" NumberOfCells="30546">
<Points>
<DataArray  type="Float64"  NumberOfComponents="3"  format="ascii">0 0 0  -0.5 -0.5 0  0.5 -0.5 0  0.5 0 0  0.5 0.5 0  -0.5 0.5 0  -0.5 0.0001 0  -0.5 -0.0001 0  0.5 0.1 0  0.5 -0.1 0  -0.5 -0.1 0  -0.5 0.1 0  -0.4900000000000277 -0.5 0  -0.4800000000000555 -0.5 0  -0.4700000000000832 -0.5 0  -0.4600000000001109 -0.5 0  -0.4500000000001387 -0.5 0  -0.4400000000001664 -0.5 0  -0.4300000000001942 -0.5 0  -0.4200000000002219 -0.5 0  -0.4100000000002497 -0.5 0  -0.4000000000002774 -0.5 0  -0.3900000000003052 -0.5 0  -0.3800000000003328 -0.5 0  -0.3700000000003606 -0.5 0  -0.3600000000003883 -0.5 0  -0.3500000000004161 -0.5 0  -0.3400000000004438 -0.5 0  -0.3300000000004716 -0.5 0  -0.3200000000004993 -0.5 0  -0.3100000000005271 -0.5 0  -0.3000000000005548 -0.5 0  -0.2900000000005825 -0.5 0  -0.2800000000006103 -0.5 0  -0.2700000000006381 -0.5 0  -0.2600000000006658 -0.5 0  -0.2500000000006935 -0.5 0  -0.2400000000007212 -0.5 0  -0.230000000000749 -0.5 0  -0.2200000000007767 -0.5 0  -0.2100000000008044 -0.5 0  -0.2000000000008322 -0.5 0  -0.19000000000086 -0.5 0  -0.1800000000008877 -0.5 0  -0.1700000000009154 -0.5 0  -0.1600000000009431 -0.5 0  -0.1500000000009709 -0.5 0  -0.1400000000009986 -0.5 0  -0.1300000000010264 -0.5 0  -0.1200000000010541 -0.5 0  -0.1100000000010818 -0.5 0  -0.1000000000011096 -0.5 0  -0.09000000000113734 -0.5 0  -0.08000000000116503 -0.5 0  -0.07000000000119283 -0.5 0  -0.06000000000122058 -0.5 0  -0.05000000000124827 -0.5 0  -0.04000000000127607 -0.5 0  -0.03000000000130376 -0.5 0  -0.02000000000133151 -0.5 0  -0.01000000000135925 -0.5 0  -1.376121439022882e-12 -0.5 0  0.009999999998640763 -0.5 0  0.01999999999866864 -0.5 0  0.02999999999869629 -0.5 0  0.03999999999872406 -0.5 0  0.04999999999875182 -0.5 0  0.05999999999877947 -0.5 0  0.06999999999880724 -0.5 0  0.079999999998835 -0.5 0  0.08999999999886266 -0.5 0  0.09999999999889042 -0.5 0  0.1099999999989182 -0.5 0  0.1199999999989459 -0.5 0  0.1299999999989737 -0.5 0  0.1399999999990014 -0.5 0  0.1499999999990291 -0.5 0  0.1599999999990568 -0.5 0  0.1699999999990847 -0.5 0  0.1799999999991124 -0.5 0  0.1899999999991401 -0.5 0  0.1999999999991678 -0.5 0  0.2099999999991955 -0.5 0  0.2199999999992234 -0.5 0  0.2299999999992511 -0.5 0  0.2399999999992788 -0.5 0  0.2499999999993066 -0.5 0  0.2599999999993342 -0.5 0  0.269999999999362 -0.5 0  0.2799999999993897 -0.5 0  0.2899999999994175 -0.5 0  0.2999999999994452 -0.5 0  0.3099999999994729 -0.5 0  0.3199999999995007 -0.5 0  0.3299999999995284 -0.5 0  0.3399999999995562 -0.5 0  0.3499999999995839 -0.5 0  0.3599999999996116 -0.5 0  0.3699999999996393 -0.5 0  0.379999999999667 -0.5 0  0.3899999999996949 -0.5 0  0.3999999999997226 -0.5 0  0.4099999999997503 -0.5 0  0.419999999999778 -0.5 0  0.4299999999998058 -0.5 0  0.4399999999998336 -0.5 0  0.4499999999998613 -0.5 0  0.4599999999998891 -0.5 0  0.4699999999999167 -0.5 0  0.4799999999999445 -0.5 0  0.4899999999999722 -0.5 0  0.5 -0.4902110204681464 0  0.5 -0.4804459958734807 0  0.5 -0.4707048677450883 0  0.5 -0.4609875815766065 0  0.5 -0.4512940759251849 0  0.5 -0.4416242912883993 0  0.5 -0.4319781678689807 0  0.5 -0.4223556545383647 0  0.5 -0.4127566896324213 0  0.5 -0.4031812128200121 0  0.5 -0.3936291733057916 0  0.5 -0.3841005081172659 0  0.5 -0.3745951585781932 0  0.5 -0.3651130778999337 0  0.5 -0.3556541993788045 0  0.5 -0.3462184677228392 0  0.5 -0.3368058273705318 0  0.5 -0.3274162224888609 0  0.5 -0.3180495969712945 0  0.5 -0.3087058944357755 0  0.5 -0.299385058222682 0  0.5 -0.2900870313927414 0  0.5 -0.2808117567250807 0  0.5 -0.2715591844628491 0  0.5 -0.2623292564012653 0  0.5 -0.253121909553727 0  0.5 -0.2439371050851549 0  0.5 -0.2347747685524501 0  0.5 -0.2256348634421331 0  0.5 -0.2165173209784076 0  0.5 -0.207422087829958 0  0.5 -0.1983491207029381 0  0.5 -0.1892983550950482 0  0.5 -0.1802697378305253 0  0.5 -0.1712632154965152 0  0.5 -0.1622787344187354 0  0.5 -0.1533162406595534 0  0.5 -0.1443756800160514 0  0.5 -0.1354569980180493 0  0.5 -0.1265601399261414 0  0.5 -0.1176850622761093 0  0.5 -0.1088317009011999 0  0.5 -0.09166666666668973 0  0.5 -0.08333333333337943 0  0.5 -0.07500000000006915 0  0.5 -0.06666666666675886 0  0.5 -0.05833333333344858 0  0.5 -0.05000000000013693 0  0.5 -0.04166666666678191 0  0.5 -0.03333333333342643 0  0.5 -0.02500000000006916 0  0.5 -0.01666666666671188 0  0.5 -0.00833333333335548 0  0.5 0.008333333333318314 0  0.5 0.01666666666663358 0  0.5 0.02499999999994162 0  0.5 0.03333333333325101 0  0.5 0.04166666666655769 0  0.5 0.04999999999986843 0  0.5 0.05833333333322258 0  0.5 0.06666666666657715 0  0.5 0.07499999999993352 0  0.5 0.08333333333328992 0  0.5 0.09166666666664541 0  0.5 0.1088317009011616 0  0.5 0.1176850622760307 0  0.5 0.1265601399260203 0  0.5 0.1354569980178909 0  0.5 0.1443756800158549 0  0.5 0.153316240659315 0  0.5 0.1622787344184454 0  0.5 0.1712632154961752 0  0.5 0.1802697378301332 0  0.5 0.1892983550946039 0  0.5 0.1983491207024433 0  0.5 0.2074220878294123 0  0.5 0.216517320977811 0  0.5 0.2256348634414833 0  0.5 0.2347747685517479 0  0.5 0.2439371050844009 0  0.5 0.2531219095529224 0  0.5 0.2623292564004089 0  0.5 0.2715591844619371 0  0.5 0.2808117567241139 0  0.5 0.290087031391723 0  0.5 0.2993850582216101 0  0.5 0.3087058944347426 0  0.5 0.3180495969703129 0  0.5 0.3274162224879299 0  0.5 0.3368058273696494 0  0.5 0.3462184677220051 0  0.5 0.3556541993780186 0  0.5 0.3651130778991989 0  0.5 0.3745951585775107 0  0.5 0.3841005081166359 0  0.5 0.3936291733052134 0  0.5 0.4031812128194852 0  0.5 0.412756689631945 0  0.5 0.4223556545379392 0  0.5 0.431978167868607 0  0.5 0.4416242912880781 0  0.5 0.4512940759249164 0  0.5 0.4609875815763912 0  0.5 0.4707048677449264 0  0.5 0.4804459958733726 0  0.5 0.4902110204680924 0  0.4900000000000277 0.5 0  0.4800000000000555 0.5 0  0.4700000000000832 0.5 0  0.4600000000001109 0.5 0  0.4500000000001387 0.5 0  0.4400000000001664 0.5 0  0.4300000000001942 0.5 0  0.4200000000002219 0.5 0  0.4100000000002497 0.5 0  0.4000000000002774 0.5 0  0.3900000000003052 0.5 0  0.3800000000003328 0.5 0  0.3700000000003606 0.5 0  0.3600000000003883 0.5 0  0.3500000000004161 0.5 0  0.3400000000004438 0.5 0  0.3300000000004716 0.5 0  0.3200000000004993 0.5 0  0.3100000000005271 0.5 0  0.3000000000005548 0.5 0  0.2900000000005825 0.5 0  0.2800000000006103 0.5 0  0.2700000000006381 0.5 0  0.2600000000006658 0.5 0  0.2500000000006935 0.5 0  0.2400000000007212 0.5 0  0.230000000000749 0.5 0  0.2200000000007767 0.5 0  0.2100000000008044 0.5 0  0.2000000000008322 0.5 0  0.19000000000086 0.5 0  0.1800000000008877 0.5 0  0.1700000000009154 0.5 0  0.1600000000009431 0.5 0  0.1500000000009709 0.5 0  0.1400000000009986 0.5 0  0.1300000000010264 0.5 0  0.1200000000010541 0.5 0  0.1100000000010818 0.5 0  0.1000000000011096 0.5 0  0.09000000000113734 0.5 0  0.08000000000116503 0.5 0  0.07000000000119283 0.5 0  0.06000000000122058 0.5 0  0.05000000000124827 0.5 0  0.04000000000127607 0.5 0  0.03000000000130376 0.5 0  0.02000000000133151 0.5 0  0.01000000000135925 0.5 0  1.376121439022882e-12 0.5 0  -0.009999999998640763 0.5 0  -0.01999999999866864 0.5 0  -0.02999999999869629 0.5 0  -0.03999999999872406 0.5 0  -0.04999999999875182 0.5 0  -0.05999999999877947 0.5 0  -0.06999999999880724 0.5 0  -0.079999999998835 0.5 0  -0.08999999999886266 0.5 0  -0.09999999999889042 0.5 0  -0.1099999999989182 0.5 0  -0.1199999999989459 0.5 0  -0.1299999999989737 0.5 0  -0.1399999999990014 0.5 0  -0.1499999999990291 0.5 0  -0.1599999999990568 0.5 0  -0.1699999999990847 0.5 0  -0.1799999999991124 0.5 0  -0.1899999999991401 0.5 0  -0.1999999999991678 0.5 0  -0.2099999999991955 0.5 0  -0.2199999999992234 0.5 0  -0.2299999999992511 0.5 0  -0.2399999999992788 0.5 0  -0.2499999999993066 0.5 0  -0.2599999999993342 0.5 0  -0.269999999999362 0.5 0  -0.2799999999993897 0.5 0  -0.2899999999994175 0.5 0  -0.2999999999994452 0.5 0  -0.3099999999994729 0.5 0  -0.3199999999995007 0.5 0  -0.3299999999995284 0.5 0  -0.3399999999995562 0.5 0  -0.3499999999995839 0.5 0  -0.3599999999996116 0.5 0  -0.3699999999996393 0.5 0  -0.379999999999667 0.5 0  -0.3899999999996949 0.5 0  -0.3999999999997226 0.5 0  -0.4099999999997503 0.5 0  -0.419999999999778 0.5 0  -0.4299999999998058 0.5 0  -0.4399999999998336 0.5 0  -0.4499999999998613 0.5 0  -0.4599999999998891 0.5 0  -0.4699999999999167 0.5 0  -0.4799999999999445 0.5 0  -0.4899999999999722 0.5 0  -0.5 0.4902110204681464 0  -0.5 0.4804459958734807 0  -0.5 0.4707048677450883 0  -0.5 0.4609875815766065 0  -0.5 0.4512940759251849 0  -0.5 0.4416242912883993 0  -0.5 0.4319781678689807 0  -0.5 0.4223556545383647 0  -0.5 0.4127566896324213 0  -0.5 0.4031812128200121 0  -0.5 0.3936291733057916 0  -0.5 0.3841005081172659 0  -0.5 0.3745951585781932 0  -0.5 0.3651130778999337 0  -0.5 0.3556541993788045 0  -0.5 0.3462184677228392 0  -0.5 0.3368058273705318 0  -0.5 0.3274162224888609 0  -0.5 0.3180495969712945 0  -0.5 0.3087058944357755 0  -0.5 0.299385058222682 0  -0.5 0.2900870313927414 0  -0.5 0.2808117567250807 0  -0.5 0.2715591844628491 0  -0.5 0.2623292564012653 0  -0.5 0.253121909553727 0  -0.5 0.2439371050851549 0  -0.5 0.2347747685524501 0  -0.5 0.2256348634421331 0  -0.5 0.2165173209784076 0  -0.5 0.207422087829958 0  -0.5 0.1983491207029381 0  -0.5 0.1892983550950482 0  -0.5 0.1802697378305253 0  -0.5 0.1712632154965152 0  -0.5 0.1622787344187354 0  -0.5 0.1533162406595534 0  -0.5 0.1443756800160514 0  -0.5 0.1354569980180493 0  -0.5 0.1265601399261414 0  -0.5 0.1176850622761093 0  -0.5 0.1088317009011999 0  -0.5 0.09167500000001694 0  -0.5 0.08335000000003931 0  -0.5 0.07502500000006167 0  -0.5 0.06670000000008947 0  -0.5 0.05837500000011001 0  -0.5 0.0500500000001328 0  -0.5 0.0417250000001127 0  -0.5 0.03340000000008944 0  -0.5 0.02507500000006573 0  -0.5 0.01675000000004653 0  -0.5 0.008425000000027341 
[...]
<PointData  Scalars="f_25"> 
<DataArray  type="Float64"  Name="f_25"  format="ascii">1.0000000000000000e+00  1.3355266288872183e-04  1.2493690891189027e-01  2.1228815465266768e-02  4.4771408992989460e-02  8.4010886447611905e-04  1.0000000000000000e+00  1.0000000000000000e+00  2.4163353590208752e-02  2.2378101159248834e-02  1.2051867213990943e-03  1.2015482561360600e-03  1.3392907067652052e-04  1.5373153703335775e-04  1.8803371715259593e-04  2.2799223648725664e-04  2.6791342104802234e-04  3.0724240683838709e-04  3.4538757542212342e-04  3.8479856609601246e-04  4.2283559546829049e-04  4.6205490735032600e-04  5.0290723733383978e-04  5.4844547251554963e-04  5.9627952422365734e-04  6.4758906287322936e-04  7.0375959126784912e-04  7.6603955401929815e-04  8.3783858372638552e-04  9.1464986504300036e-04  9.9999269110426811e-04  1.0956245638140292e-03  1.1969668956055741e-03  1.3079254335623630e-03  1.4323327392541209e-03  1.5620899900754984e-03  1.7047491560974991e-03  1.8586389854663456e-03  2.0240414734301851e-03  2.2057795198156833e-03  2.3942517793603124e-03  2.6015624138540582e-03  2.8190071883797173e-03  3.0509128443488220e-03  3.2964300682369152e-03  3.5588696625323286e-03  3.8352346232013047e-03  4.1244544766508833e-03  4.4290721982106060e-03  4.7498214491639105e-03  5.0846880336295275e-03  5.4309862270498048e-03  5.7941917009513835e-03  6.1723999936211943e-03  6.5588937411567728e-03  6.9625800215334039e-03  7.3757694436661688e-03  7.8064064518089246e-03  8.2428435114920949e-03  8.6891320288376723e-03  9.1490481360012241e-03  9.6150106501628162e-03  1.0090777568093642e-02  1.0573081237395641e-02  1.1066531084651179e-02  1.1568913672220611e-02  1.2065955062327237e-02  1.2568825621007078e-02  1.3080672266136125e-02  1.3598473058014015e-02  1.4117124761449426e-02  1.4633842184249983e-02  1.5164009392814856e-02  1.5701750644010134e-02  1.6225660125878602e-02  1.6759894376668333e-02  1.7302598353362005e-02  1.7833565588752556e-02  1.8383817555286064e-02  1.8925489719026588e-02  1.9474353668464700e-02  2.0036049477222897e-02  2.0606146454762490e-02  2.1185292006248080e-02  2.1775774061360990e-02  2.2366328245211359e-02  2.2979178925183905e-02  2.3616999790778952e-02  2.4265876685718446e-02  2.4949446928599097e-02  2.5675994225864925e-02  2.6429809210545382e-02  2.7245225348319833e-02  2.8101396494370490e-02  2.9020617128354034e-02  3.0026470572730123e-02  3.1141045318987128e-02  3.2362694525758004e-02  3.3733683965806199e-02  3.5316723220757809e-02  3.7105804959329899e-02  3.9215298968565356e-02  4.1702744865999772e-02  4.4777627054848113e-02  4.8473262535232112e-02  5.3207348138182169e-02  5.9372576642144174e-02  6.7485050680664446e-02  7.8175731367596230e-02  9.2086041618454281e-02  1.0988220474854407e-01  1.1467511943641881e-01  9.6436708253485215e-02  8.1827270735393837e-02  7.0427442940704202e-02  6.2217330034061942e-02  5.6161083221369833e-02  5.1665323658330702e-02  4.8207012072888647e-02  4.5476539275584517e-02  4.3295850972425436e-02  4.1472430797916376e-02  3.9965351551397903e-02  3.8669060992883281e-02  3.7576167263187202e-02  3.6591096334092188e-02  3.5701004118197370e-02  3.4924897826446359e-02  3.4193796021727736e-02  3.3498783139520406e-02  3.2865424097436022e-02  3.2229028697046747e-02  3.1652364205601975e-02  3.1073605607310425e-02  3.0510520171299758e-02  2.9965957260161376e-02  2.9441644171092737e-02  2.8937424113212797e-02  2.8428419459789932e-02  2.7945542500282670e-02  2.7446404271091466e-02  2.6964396274935444e-02  2.6493981963730491e-02  2.6040655890977708e-02  2.5607213015421296e-02  2.5171769055280409e-02  2.4764557598271040e-02  2.4364305691322523e-02  2.3982830507417233e-02  2.3619934484283543e-02  2.3261717525319150e-02  2.2960841252899811e-02  2.2666461846538928e-02  2.2150634296593568e-02  2.1938151659678926e-02  2.1747174834322109e-02  2.1592258841392972e-02  2.1447925372687512e-02  2.1330154495363001e-02  2.1252391887724001e-02  2.1192319118064580e-02  2.1142686624672464e-02  2.1159743497066178e-02  2.1189693198350273e-02  2.1330342313881302e-02  2.1440459777816320e-02  2.1579666791826348e-02  2.1760007568324104e-02  2.1958740835523273e-02  2.2193435909580093e-02  2.2461311156735959e-02  2.2750068148052749e-02  2.3050542344965758e-02  2.3406125027046202e-02  2.3775325604944525e-02  2.4623031722621133e-02  2.5094207140071722e-02  2.5578518517537042e-02  2.6113915168262138e-02  2.6664323469196016e-02  2.7232164454797207e-02  2.7823922057819400e-02  2.8426624895499568e-02  2.9051891186383353e-02  2.9677817141146673e-02  3.0324981176826575e-02  3.0983018216519938e-02  3.1654675101538000e-02  3.2332196801462015e-02  3.3001674506323658e-02  3.3662457016347160e-02  3.4318358607727653e-02  3.4978342877445640e-02  3.5640148305653159e-02  3.6297312651833759e-02  3.6938104150985085e-02  3.7561450870451499e-02  3.8166514137652402e-02  3.8761880597224047e-02  3.9325084178882003e-02  3.9871500970104327e-02  4.0405591822912812e-02  4.0893668090929702e-02  4.1369381971204239e-02  4.1819346020761074e-02  4.2248658279941335e-02  4.2639552058609968e-02  4.3000453933877844e-02  4.3330180893782433e-02  4.3627239986012568e-02  4.3894340230826265e-02  4.4121299333379459e-02  4.4323943776598790e-02  4.4485072210328040e-02  4.4628659996579480e-02  4.4693525131536009e-02  4.4754372881969304e-02  4.4513499140470404e-02  4.3995859380574008e-02  4.3370359096163928e-02  4.2718887736825625e-02  4.2077699339575753e-02  4.1471714764323021e-02  4.0914198218988881e-02  4.0402356959636170e-02  3.9923878686719441e-02  3.9480317515700532e-02  3.9071859686091753e-02  3.8694801429179491e-02  3.8333662925958703e-02  3.7995372727536100e-02  3.7669107140603585e-02  3.7349120217484329e-02  3.7038002165629677e-02  3.6730014794093484e-02  3.6418762218201152e-02  3.6095330706270662e-02  3.5767865716491286e-02  3.5422673124917287e-02  3.5063049928447144e-02  3.4677394910116462e-02  3.4271991989588871e-02  3.3844098338450125e-02  3.3382574990632088e-02  3.2894580329133206e-02  3.2363024383973385e-02  3.1807953442227824e-02  3.1215149200663050e-02  3.0588465124483339e-02  2.9920893596458019e-02  2.9217801566657473e-02  2.8480965718594372e-02  2.7710406605743053e-02  2.6908012448404420e-02  2.6075676666804180e-02  2.5211403963968829e-02  2.4305913798879836e-02  2.3389049448591378e-02  2.2451190583602985e-02  2.1498992970612547e-02  2.0537389540009679e-02  1.9555510766597440e-02  1.8581881785817180e-02  1.7589048389729654e-02  1.6601952751899889e-02  1.5629316846080914e-02  1.4672144780722093e-02  1.3732486182976223e-02  1.2796209195427120e-02  1.1902426860358188e-02  1.1024545083758235e-02  1.0173038290642021e-02  9.3648597266353939e-03  8.5799478094632543e-03  7.8333973205513274e-03  7.1274733152319244e-03  6.4557909473399950e-03  5.8303365682312895e-03  5.2373044973424389e-03  4.6881274881385455e-03  4.1761573995927415e-03  3.7033762498394989e-03  3.2661969732904286e-03  2.8614016909100609e-03  2.4984386227487345e-03  2.1626732766138377e-03  1.8611739184091097e-03  1.5882660518069195e-03  1.3452729664341172e-03  1.1262048590320159e-03  9.3445744770909178e-04  7.6302597017096339e-04  6.1398116238116178e-04  4.8670191969648669e-04  3.7586366974387824e-04  2.8348937648538572e-04  2.0627403850210772e-04  1.4421248309044754e-04  9.6714360717477504e-05  6.2365536897572208e-05  4.1041467661367980e-05  3.1554764855228377e-05  3.2979395770509563e-05  4.4753064527697574e-05  6.5744977679301842e-05  9.5347131846179950e-05  1.3252429861926296e-04  1.7819353483675355e-04  2.3202271944714392e-04  2.9527514304456015e-04  3.6636466971731399e-04  4.4781564510500973e-04  5.3617637357570344e-04  6.3186813813730005e-04  7.2491877174067718e-04  8.0160769981210938e-04  8.4027914101532245e-04  8.3769437275752704e-04  8.3639952426382337e-04  8.2729092845520676e-04  8.2050287453834915e-04  8.1169366467735661e-04  8.0042142184400065e-04  7.8894305087286979e-04  7.7404994472846914e-04  7.5947842387617879e-04  7.4319440966219888e-04  7.2542573165162007e-04  7.0563736092197379e-04  6.8441368252710334e-04  6.6217642707882705e-04  6.3866409888320213e-04  6.1403086100242029e-04  5.8777363007335654e-04  5.6027776355831117e-04  5.3230485583040897e-04  5.0376600321095711e-04  4.7380701709100881e-04  4.4373691599373856e-04  4.1349927183396057e-04  3.8274624307943700e-04  3.5250543731643505e-04  3.2381802078064112e-04  2.9461471034183858e-04  2.6602069934818223e-04  2.3844098929354975e-04  2.1156435421724529e-04  1.8716609048562480e-04  1.6490595740639559e-04  1.4469087432000856e-04  1.2832995295006404e-04  1.1835335397000139e-04  1.1624123912009687e-04  1.2796624476296367e-04  1.6341839735741694e-04  2.3942166835856906e-04  3.9424543143647920e-04  6.8144593772689606e-04  2.1114260496770611e-03  3.6954727238933619e-03  6.4942202057875547e-03  1.1262764143263647e-02  1.9741556695079338e-02  3.4723974458761568e-02  6.0784174884708157e-02  1.0622308707501030e-01  1.8493095755415989e-01  3.2702572028441096e-01  5.7160168955392909e-01  1.0000000000000000e+00  1.0000000000000000e+00  1.0000000000000000e+00  1.0000000000000000e+00  1.0000000000000000e+00  1.0000000000000000e+00  1.0000000000000000e+00  1.0000000000000000e+00  1.0000000000000000e+00  1.0000000000000000e+00  1.0000000000000000e+00  1.0000000000000000e+00  1.0000000000000000e+00  1.0000000000000000e+00  1.0000000000000000e+00  1.0000000000000000e+00  1.0000000000000000e+00  1.0000000000000000e+00  1.0000000000000000e+00  1.0000000000000000e+00  1.0000000000000000e+00  1.0000000000000000e+00  1.0000000000000000e+00  1.0000000000000000e+00  1.0000000000000000e+00  9.9999999999999989e-01  1.0000000000000000e+00  1.0000000000000000e+00  1.0000000000000000e+00  1.0000000000000000e+00  1.0000000000000000e+00  1.0000000000000000e+00  1.0000000000000000e+00  1.0000000000000000e+00  1.0000000000000000e+00  1.0000000000000000e+00  1.0000000000000000e+00  1.0000000000000000e+00  1.0000000000000000e+00  1.0000000000000000e+00  1.0000000000000000e+00  1.0000000000000000e+00  1.0000000000000000e+00  1.0000000000000000e+00  1.0000000000000000e+00  1.0000000000000000e+00  1.0000000000000000e+00  1.0000000000000000e+00  1.0000000000000000e+00  1.0000000000000000e+00  1.0000000000000000e+00  1.0000000000000000e+00  1.0000000000000000e+00  1.0000000000000000e+00  1.0000000000000000e+00  1.0000000000000000e+00  1.0000000000000000e+00  1.0000000000000000e+00  1.0000000000000000e+00  1.0000000000000000e+00  1.0000000000000000e+00  1.0000000000000000e+00  1.0000000000000000e+00  1.0000000000000000e+00  1.0000000000000000e+00  1.0000000000000000e+00  1.0000000000000000e+00  1.0000000000000000e+00  1.0000000000000000e+00  1.0000000000000000e+00  1.0000000000000000e+00  1.0000000000000000e+00  1.0000000000000000e+00  1.0000000000000000e+00  1.0000000000000000e+00  1.0000000000000000e+00  1.0000000000000000e+00  1.0000000000000000e+00  1.0000000000000000e+00  1.0000000000000000e+00  1.0000000000000000e+00  1.0000000000000000e+00  1.0000000000000000e+00  1.0000000000000000e+00  1.0000000000000000e+00  1.0000000000000000e+00  1.0000000000000000e+00  1.0000000000000000e+00  1.0000000000000000e+00  1.0000000000000000e+00  1.0000000000000000e+00  1.0000000000000000e+00  1.0000000000000000e+00  1.0000000000000000e+00  1.0000000000000000e+00  1.0000000000000000e+00  1.0000000000000000e+00  1.0000000000000000e+00  1.0000000000000000e+00  1.0000000000000000e+00  1.0000000000000000e+00  1.0000000000000000e+00  1.0000000000000000e+00  1.0000000000000000e+00  1.0000000000000000e+00  1.0000000000000000e+00  1.0000000000000000e+00  1.0000000000000000e+00  1.0000000000000000e+00  1.0000000000000000e+00  5.7157113193331599e-01  3.2704091819956715e-01  1.8489425353239095e-01  1.0624098150901097e-01  6.0791792961161314e-02  3.4729888504198309e-02  1.9749783656932283e-02  1.1265632192015840e-02  6.4994161528194160e-03  3.6993398819632223e-03  2.1151296224812956e-03  6.8561977820358561e-04  3.9899922403271223e-04  2.4449509081967503e-04  1.6965669492712582e-04  1.3485808413494252e-04  1.2351237210072612e-04  1.2568162074843816e-04  1.3540016604972032e-04  1.5075409201901395e-04  1.6939136450916533e-04  1.8948424475693376e-04  2.1027171645325685e-04  2.3254733295873358e-04  2.5428016416826070e-04  2.7538374170735843e-04  2.9588119553813674e-04  3.1381718197478673e-04  3.3132196261583555e-04  3.4689070651305242e-04  3.5997570897460489e-04  3.7083928035654677e-04  3.7888230553160580e-04  3.8353856546355738e-04  3.8462356996773832e-04  3.8255905271106282e-04  3.7729207832545354e-04  3.6860437784603920e-04  3.5589071669782542e-04  3.3981934145563259e-04  3.2145461243478956e-04  2.9984496130894343e-04  2.7596320496542734e-04  2.5026898791200594e-04  2.2303517910359243e-04  1.9599961660700119e-04  1.7137074899865049e-04  1.4765211720174705e-04  1.2674680817668400e-04  1.1190910459264595e-04  1.0352342417879518e-04  1.1104716964234056e-04  1.2389839179538568e-04  1.2007414319715221e-03  1.2090236874174750e-03  1.2162969248494056e-03  1.2212569962806927e-03  1.2261764750999657e-03  1.2524435604588759e-03  1.2618918655247448e-03  1.2590189344823823e-03  1.2859810336882768e-03  1.3138135221622330e-03  1.3069136196513650e-03  1.3366092211198404e-03  1.3626411174721253e-03  1.3769034494302522e-03  1.3903503275688020e-03  1.3950752226479554e-03  1.4066711172231866e-03  1.4080829824661481e-03  1.4375074204535266e-03  1.4503147046800212e-03  1.4470944083124729e-03  1.4524435803214488e-03  1.4702134334457137e-03  1.4714800848821014e-03  1.4584600024365596e-03  1.4577127673908051e-03  1.4531367319812810e-03  1.4391919218197003e-03  1.4413546523949525e-03  1.4231638038254169e-03  1.4029304719985068e-03  1.3954729431895881e-03  1.3852728753205052e-03  1.3659348983150279e-03  1.3745658946440571e-03  1.3999964511178077e-03  1.3927359051579013e-03  1.4515363509633357e-03  1.5242094568415983e-03  1.6200465758761499e-03  1.8141441108399845e-03  2.0545187575826593e-03  2.3841152728882810e-03  2.8711294237232193e-03  3.5105322949707863e-03  4.3822326747241964e-03  5.5509290560848386e-03  7.0514597620947176e-03  8.9497943023449933e-03  1.1342648881454616e-02  1.4285513325168976e-02  1.7821766099156165e-02  2.1980913043869409e-02  2.6530253779132377e-02  3.1447339950952474e-02  3.6587308631911571e-02  4.1590582013111471e-02  4.6180183415745632e-02  5.0217475126132533e-02  5.3402545438851347e-02  5.5666077242573234e-02  5.7044981337180639e-02  5.7592973108352638e-02  5.7442427953211660e-02  5.6725316607365128e-02  5.5591538135094223e-02  5.4207696853111546e-02  5.2640537514567258e-02  5.1004256579332233e-02  4.9332879887069969e-02  4.7744870398597677e-02  4.6212077044213776e-02  4.4769290214354482e-02  4.3430772631883559e-02  4.2204221290318894e-02  4.1075723102991499e-02  4.0043017089598072e-02  3.9119450890119027e-02  3.8282176011317046e-02  3.7526346257440626e-02  3.6835196239928730e-02  3.6204360318740129e-02  3.5633309230162072e-02  3.5111357081218590e-02  3.4622831507802820e-02  3.4180836739404849e-02  3.3768301109308826e-02  3.3387479728847091e-02  3.3025715149074500e-02  3.2674870851272082e-02  3.2345397358769352e-02  3.2026660020323901e-02  3.1706653374108572e-02  3.1388218277215149e-02  3.1065878012277132e-02  3.0744965139007374e-02  3.0417335831184972e-02  3.0076459322524906e-02  2.9723014903841011e-02  2.9352766183699596e-02  2.8966390644786379e-02  2.8560977568076622e-02  2.8137575834772516e-02  2.7689937625619141e-02  2.7217753565813699e-02  2.6727938321409708e-02  2.6215771217899482e-02  2.5696913819598752e-02  2.5182754905198116e-02  2.4708256466197970e-02  2.4335757199033376e-02  1.2044471102831608e-03  1.2124505032843811e-03  1.2198331596486828e-03  1.2248150045810460e-03  1.2297527360808304e-03  1.2562784115422978e-03  1.2649337831124770e-03  1.2616487854502040e-03  1.2871359888633038e-03  1.3133069482908571e-03  1.3071401188536826e-03  1.3326522082344862e-03  1.3567639604796162e-03  1.3688279326070543e-03  1.3800669189909789e-03  1.3832784709161639e-03  1.3916476723559374e-03  1.3889135515841018e-03  1.4179214319848356e-03  1.4331842580637064e-03  1.4291066229492611e-03  1.4346009746873231e-03  1.4491115432300561e-03  1.4499363552904123e-03  1.4356086444840745e-03  1.4345121969192038e-03  1.4306224636152262e-03  1.4170650984052448e-03  1.4189407378673898e-03  1.4017056797115768e-03  1.3813935325522155e-03  1.3728632097669375e-03  1.3610339539799428e-03  1.3406981995239572e-03  1.3473841056975400e-03  1.3701535897310676e-03  1.3569750987010654e-03  1.4079257430979037e-03  1.4683139361836102e-03  1.5487472238274187e-03  1.7233643574562129e-03  1.9353854879405547e-03  2.2305298788173381e-03  2.6741089129460010e-03  3.2558041898057511e-03  4.0561984927013134e-03  5.1372198684212786e-03  6.5326750289275478e-03  8.3079869045810783e-03  1.0561818991524715e-02  1.3350518804441597e-02  1.6723088500457554e-02  2.0709880944447315e-02  2.5103585976751649e-02  2.9886434205499520e-02  3.4923362441022968e-02  3.9875940340907808e-02  4.4487676449270847e-02  4.8602257708260314e-02  5.1934740147872666e-02  5.4403120078145656e-02  5.6016960203803687e-02  5.6824902688665177e-02  5.6940316920776987e-02  5.6467209031737388e-02  5.5563890118406692e-02  5.4384838976317566e-02  5.2991391570040458e-02  5.1498337402635694e-02  4.9937687794563812e-02  4.8442576266968962e-02  4.6981695620971015e-02  4.5583443937118703e-02  4.4279880250751989e-02  4.3075424457721723e-02  4.1957923231955206e-02  4.0926491273227339e-02  3.9996022760523608e-02  3.9145524015016690e-02  3.8373120071164432e-02  3.7660386662650445e-02  3.7002236464852095e-02  3.6401528670885579e-02  3.5844782478085466e-02  3.5319631102559187e-02  3.4835358683319259e-02  3.4376957860108262e-02  3.3947799947030712e-02  3.3533332465239610e-02  3.3124019750808940e-02  3.2732037434222538e-02  3.2345656045652954e-02  3.1952345346801275e-02  3.1556477920656585e-02  3.1149789912600683e-02  3.0739757465973482e-02  3.0318283158824538e-02  2.9876649436989623e-02  2.9417492501769525e-02  2.8935122729847652e-02  2.8431209567428714e-02  2.7904914008920825e-02  2.7355555065423812e-02  2.6779781738323526e-02  2.6177251619914153e-02  2.5554570381494359e-02  2.4911283526938485e-02  2.4262009110570523e-02  2.3623259449687975e-02  2.3041376930769606e-02  2.2584917176920030e-02  6.9099018407990087e-01  4.8833187920058396e-01  3.3933879030178177e-01  2.4440694569112531e-01  1.8122952396231209e-01  1.3806645918961613e-01  1.0872217147524517e-01  8.8962956152419045e-02  7.4810143662346132e-02  6.4817225757851107e-02  5.7450968101912268e-02  5.1860353922077211e-02  4.7641289381076965e-02  4.4366238092079534e-02  4.1787677253859838e-02  3.9717108448057925e-02  3.8062216885804509e-02  3.6706072937777078e-02  3.5582525738577453e-02  3.4663518427137323e-02  3.3892967126219635e-02  3.3235801954437205e-02  3.2689999649160369e-02  3.2220731130707191e-02  3.1819884852071788e-02  3.1479450212685348e-02  3.1167433354311876e-02  3.0904983465651154e-02  3.0662029065241111e-02  3.0438136497144198e-02  3.0237989881366053e-02  3.0052433085583558e-02  2.9866768006334882e-02  2.9677589598869032e-02  2.9486563266818710e-02  2.9285055216093321e-02  2.9082517359602010e-02  2.8862866946805066e-02  2.8627776859968333e-02  2.8376282516369693e-02  2.8103951050064122e-02  2.7809072803660496e-02  2.7485059561668222e-02  2.7134785627610413e-02  2.6747464490829518e-02  2.6329576656128870e-02  2.5879722857019154e-02  2.5388543356582430e-02  2.4865050383841434e-02  2.4300374240479070e-02  2.3705085206210855e-02  2.3091170594266935e-02  2.2473752459231923e-02  2.1903640018520770e-02  2.1437037872886731e-02  7.2577093795150229e-03  1.7481897683980848e-04  3.0972506503028539e-02  3.7370747716603231e-02  2.2765095789124074e-02  8.5256690905678853e-04  2.3889203056939615e-04  3.9504192211029271e-02  3.4179749254620889e-02  1.7074258658689799e-02  1.9310825305073357e-03  9.7865486368052494e-05  3.4078909193536226e-02  3.8173022829607842e-02  6.6629198092479211e-03  1.6669716410587252e-04  3.9819965957997784e-02  2.6782355455742771e-02  2.7710502521078337e-04  7.2385466825025868e-03  3.6608321018845431e