<?xml version="1.0"?>
<VTKFile type="UnstructuredGrid"  version="0.1"  >
<UnstructuredGrid>
<Piece  NumberOfPoints="15540" NumberOfCells="30546">
<Points>
<DataArray  type="Float64"  NumberOfComponents="3"  format="ascii">0 0 0  -0.5 -0.5 0  0.5 -0.5 0  0.5 0 0  0.5 0.5 0  -0.5 0.5 0  -0.5 0.0001 0  -0.5 -0.0001 0  0.5 0.1 0  0.5 -0.1 0  -0.5 -0.1 0  -0.5 0.1 0  -0.4900000000000277 -0.5 0  -0.4800000000000555 -0.5 0  -0.4700000000000832 -0.5 0  -0.4600000000001109 -0.5 0  -0.4500000000001387 -0.5 0  -0.4400000000001664 -0.5 0  -0.4300000000001942 -0.5 0  -0.4200000000002219 -0.5 0  -0.4100000000002497 -0.5 0  -0.4000000000002774 -0.5 0  -0.3900000000003052 -0.5 0  -0.3800000000003328 -0.5 0  -0.3700000000003606 -0.5 0  -0.3600000000003883 -0.5 0  -0.3500000000004161 -0.5 0  -0.3400000000004438 -0.5 0  -0.3300000000004716 -0.5 0  -0.3200000000004993 -0.5 0  -0.3100000000005271 -0.5 0  -0.3000000000005548 -0.5 0  -0.2900000000005825 -0.5 0  -0.2800000000006103 -0.5 0  -0.2700000000006381 -0.5 0  -0.2600000000006658 -0.5 0  -0.2500000000006935 -0.5 0  -0.2400000000007212 -0.5 0  -0.230000000000749 -0.5 0  -0.2200000000007767 -0.5 0  -0.2100000000008044 -0.5 0  -0.2000000000008322 -0.5 0  -0.19000000000086 -0.5 0  -0.1800000000008877 -0.5 0  -0.1700000000009154 -0.5 0  -0.1600000000009431 -0.5 0  -0.1500000000009709 -0.5 0  -0.1400000000009986 -0.5 0  -0.1300000000010264 -0.5 0  -0.1200000000010541 -0.5 0  -0.1100000000010818 -0.5 0  -0.1000000000011096 -0.5 0  -0.09000000000113734 -0.5 0  -0.08000000000116503 -0.5 0  -0.07000000000119283 -0.5 0  -0.06000000000122058 -0.5 0  -0.05000000000124827 -0.5 0  -0.04000000000127607 -0.5 0  -0.03000000000130376 -0.5 0  -0.02000000000133151 -0.5 0  -0.01000000000135925 -0.5 0  -1.376121439022882e-12 -0.5 0  0.009999999998640763 -0.5 0  0.01999999999866864 -0.5 0  0.02999999999869629 -0.5 0  0.03999999999872406 -0.5 0  0.04999999999875182 -0.5 0  0.05999999999877947 -0.5 0  0.06999999999880724 -0.5 0  0.079999999998835 -0.5 0  0.08999999999886266 -0.5 0  0.09999999999889042 -0.5 0  0.1099999999989182 -0.5 0  0.1199999999989459 -0.5 0  0.1299999999989737 -0.5 0  0.1399999999990014 -0.5 0  0.1499999999990291 -0.5 0  0.1599999999990568 -0.5 0  0.1699999999990847 -0.5 0  0.1799999999991124 -0.5 0  0.1899999999991401 -0.5 0  0.1999999999991678 -0.5 0  0.2099999999991955 -0.5 0  0.2199999999992234 -0.5 0  0.2299999999992511 -0.5 0  0.2399999999992788 -0.5 0  0.2499999999993066 -0.5 0  0.2599999999993342 -0.5 0  0.269999999999362 -0.5 0  0.2799999999993897 -0.5 0  0.2899999999994175 -0.5 0  0.2999999999994452 -0.5 0  0.3099999999994729 -0.5 0  0.3199999999995007 -0.5 0  0.3299999999995284 -0.5 0  0.3399999999995562 -0.5 0  0.3499999999995839 -0.5 0  0.3599999999996116 -0.5 0  0.3699999999996393 -0.5 0  0.379999999999667 -0.5 0  0.3899999999996949 -0.5 0  0.3999999999997226 -0.5 0  0.4099999999997503 -0.5 0  0.419999999999778 -0.5 0  0.4299999999998058 -0.5 0  0.4399999999998336 -0.5 0  0.4499999999998613 -0.5 0  0.4599999999998891 -0.5 0  0.4699999999999167 -0.5 0  0.4799999999999445 -0.5 0  0.4899999999999722 -0.5 0  0.5 -0.4902110204681464 0  0.5 -0.4804459958734807 0  0.5 -0.4707048677450883 0  0.5 -0.4609875815766065 0  0.5 -0.4512940759251849 0  0.5 -0.4416242912883993 0  0.5 -0.4319781678689807 0  0.5 -0.4223556545383647 0  0.5 -0.4127566896324213 0  0.5 -0.4031812128200121 0  0.5 -0.3936291733057916 0  0.5 -0.3841005081172659 0  0.5 -0.3745951585781932 0  0.5 -0.3651130778999337 0  0.5 -0.3556541993788045 0  0.5 -0.3462184677228392 0  0.5 -0.3368058273705318 0  0.5 -0.3274162224888609 0  0.5 -0.3180495969712945 0  0.5 -0.3087058944357755 0  0.5 -0.299385058222682 0  0.5 -0.2900870313927414 0  0.5 -0.2808117567250807 0  0.5 -0.2715591844628491 0  0.5 -0.2623292564012653 0  0.5 -0.253121909553727 0  0.5 -0.2439371050851549 0  0.5 -0.2347747685524501 0  0.5 -0.2256348634421331 0  0.5 -0.2165173209784076 0  0.5 -0.207422087829958 0  0.5 -0.1983491207029381 0  0.5 -0.1892983550950482 0  0.5 -0.1802697378305253 0  0.5 -0.1712632154965152 0  0.5 -0.1622787344187354 0  0.5 -0.1533162406595534 0  0.5 -0.1443756800160514 0  0.5 -0.1354569980180493 0  0.5 -0.1265601399261414 0  0.5 -0.1176850622761093 0  0.5 -0.1088317009011999 0  0.5 -0.09166666666668973 0  0.5 -0.08333333333337943 0  0.5 -0.07500000000006915 0  0.5 -0.06666666666675886 0  0.5 -0.05833333333344858 0  0.5 -0.05000000000013693 0  0.5 -0.04166666666678191 0  0.5 -0.03333333333342643 0  0.5 -0.02500000000006916 0  0.5 -0.01666666666671188 0  0.5 -0.00833333333335548 0  0.5 0.008333333333318314 0  0.5 0.01666666666663358 0  0.5 0.02499999999994162 0  0.5 0.03333333333325101 0  0.5 0.04166666666655769 0  0.5 0.04999999999986843 0  0.5 0.05833333333322258 0  0.5 0.06666666666657715 0  0.5 0.07499999999993352 0  0.5 0.08333333333328992 0  0.5 0.09166666666664541 0  0.5 0.1088317009011616 0  0.5 0.1176850622760307 0  0.5 0.1265601399260203 0  0.5 0.1354569980178909 0  0.5 0.1443756800158549 0  0.5 0.153316240659315 0  0.5 0.1622787344184454 0  0.5 0.1712632154961752 0  0.5 0.1802697378301332 0  0.5 0.1892983550946039 0  0.5 0.1983491207024433 0  0.5 0.2074220878294123 0  0.5 0.216517320977811 0  0.5 0.2256348634414833 0  0.5 0.2347747685517479 0  0.5 0.2439371050844009 0  0.5 0.2531219095529224 0  0.5 0.2623292564004089 0  0.5 0.2715591844619371 0  0.5 0.2808117567241139 0  0.5 0.290087031391723 0  0.5 0.2993850582216101 0  0.5 0.3087058944347426 0  0.5 0.3180495969703129 0  0.5 0.3274162224879299 0  0.5 0.3368058273696494 0  0.5 0.3462184677220051 0  0.5 0.3556541993780186 0  0.5 0.3651130778991989 0  0.5 0.3745951585775107 0  0.5 0.3841005081166359 0  0.5 0.3936291733052134 0  0.5 0.4031812128194852 0  0.5 0.412756689631945 0  0.5 0.4223556545379392 0  0.5 0.431978167868607 0  0.5 0.4416242912880781 0  0.5 0.4512940759249164 0  0.5 0.4609875815763912 0  0.5 0.4707048677449264 0  0.5 0.4804459958733726 0  0.5 0.4902110204680924 0  0.4900000000000277 0.5 0  0.4800000000000555 0.5 0  0.4700000000000832 0.5 0  0.4600000000001109 0.5 0  0.4500000000001387 0.5 0  0.4400000000001664 0.5 0  0.4300000000001942 0.5 0  0.4200000000002219 0.5 0  0.4100000000002497 0.5 0  0.4000000000002774 0.5 0  0.3900000000003052 0.5 0  0.3800000000003328 0.5 0  0.3700000000003606 0.5 0  0.3600000000003883 0.5 0  0.3500000000004161 0.5 0  0.3400000000004438 0.5 0  0.3300000000004716 0.5 0  0.3200000000004993 0.5 0  0.3100000000005271 0.5 0  0.3000000000005548 0.5 0  0.2900000000005825 0.5 0  0.2800000000006103 0.5 0  0.2700000000006381 0.5 0  0.2600000000006658 0.5 0  0.2500000000006935 0.5 0  0.2400000000007212 0.5 0  0.230000000000749 0.5 0  0.2200000000007767 0.5 0  0.2100000000008044 0.5 0  0.2000000000008322 0.5 0  0.19000000000086 0.5 0  0.1800000000008877 0.5 0  0.1700000000009154 0.5 0  0.1600000000009431 0.5 0  0.1500000000009709 0.5 0  0.1400000000009986 0.5 0  0.1300000000010264 0.5 0  0.1200000000010541 0.5 0  0.1100000000010818 0.5 0  0.1000000000011096 0.5 0  0.09000000000113734 0.5 0  0.08000000000116503 0.5 0  0.07000000000119283 0.5 0  0.06000000000122058 0.5 0  0.05000000000124827 0.5 0  0.04000000000127607 0.5 0  0.03000000000130376 0.5 0  0.02000000000133151 0.5 0  0.01000000000135925 0.5 0  1.376121439022882e-12 0.5 0  -0.009999999998640763 0.5 0  -0.01999999999866864 0.5 0  -0.02999999999869629 0.5 0  -0.03999999999872406 0.5 0  -0.04999999999875182 0.5 0  -0.05999999999877947 0.5 0  -0.06999999999880724 0.5 0  -0.079999999998835 0.5 0  -0.08999999999886266 0.5 0  -0.09999999999889042 0.5 0  -0.1099999999989182 0.5 0  -0.1199999999989459 0.5 0  -0.1299999999989737 0.5 0  -0.1399999999990014 0.5 0  -0.1499999999990291 0.5 0  -0.1599999999990568 0.5 0  -0.1699999999990847 0.5 0  -0.1799999999991124 0.5 0  -0.1899999999991401 0.5 0  -0.1999999999991678 0.5 0  -0.2099999999991955 0.5 0  -0.2199999999992234 0.5 0  -0.2299999999992511 0.5 0  -0.2399999999992788 0.5 0  -0.2499999999993066 0.5 0  -0.2599999999993342 0.5 0  -0.269999999999362 0.5 0  -0.2799999999993897 0.5 0  -0.2899999999994175 0.5 0  -0.2999999999994452 0.5 0  -0.3099999999994729 0.5 0  -0.3199999999995007 0.5 0  -0.3299999999995284 0.5 0  -0.3399999999995562 0.5 0  -0.3499999999995839 0.5 0  -0.3599999999996116 0.5 0  -0.3699999999996393 0.5 0  -0.379999999999667 0.5 0  -0.3899999999996949 0.5 0  -0.3999999999997226 0.5 0  -0.4099999999997503 0.5 0  -0.419999999999778 0.5 0  -0.4299999999998058 0.5 0  -0.4399999999998336 0.5 0  -0.4499999999998613 0.5 0  -0.4599999999998891 0.5 0  -0.4699999999999167 0.5 0  -0.4799999999999445 0.5 0  -0.4899999999999722 0.5 0  -0.5 0.4902110204681464 0  -0.5 0.4804459958734807 0  -0.5 0.4707048677450883 0  -0.5 0.4609875815766065 0  -0.5 0.4512940759251849 0  -0.5 0.4416242912883993 0  -0.5 0.4319781678689807 0  -0.5 0.4223556545383647 0  -0.5 0.4127566896324213 0  -0.5 0.4031812128200121 0  -0.5 0.3936291733057916 0  -0.5 0.3841005081172659 0  -0.5 0.3745951585781932 0  -0.5 0.3651130778999337 0  -0.5 0.3556541993788045 0  -0.5 0.3462184677228392 0  -0.5 0.3368058273705318 0  -0.5 0.3274162224888609 0  -0.5 0.3180495969712945 0  -0.5 0.3087058944357755 0  -0.5 0.299385058222682 0  -0.5 0.2900870313927414 0  -0.5 0.2808117567250807 0  -0.5 0.2715591844628491 0  -0.5 0.2623292564012653 0  -0.5 0.253121909553727 0  -0.5 0.2439371050851549 0  -0.5 0.2347747685524501 0  -0.5 0.2256348634421331 0  -0.5 0.2165173209784076 0  -0.5 0.207422087829958 0  -0.5 0.1983491207029381 0  -0.5 0.1892983550950482 0  -0.5 0.1802697378305253 0  -0.5 0.1712632154965152 0  -0.5 0.1622787344187354 0  -0.5 0.1533162406595534 0  -0.5 0.1443756800160514 0  -0.5 0.1354569980180493 0  -0.5 0.1265601399261414 0  -0.5 0.1176850622761093 0  -0.5 0.1088317009011999 0  -0.5 0.09167500000001694 0  -0.5 0.08335000000003931 0  -0.5 0.07502500000006167 0  -0.5 0.06670000000008947 0  -0.5 0.05837500000011001 0  -0.5 0.0500500000001328 0  -0.5 0.0417250000001127 0  -0.5 0.03340000000008944 0  -0.5 0.02507500000006573 0  -0.5 0.01675000000004653 0  -0.5 0.008425000000027341 
[...]
<PointData  Scalars="f_25"> 
<DataArray  type="Float64"  Name="f_25"  format="ascii">1.0000000000000000e+00  1.7786101352809002e-09  2.8352788051871493e-06  9.9489340976405150e-01  1.2421630018158406e-06  1.7553363161220074e-08  1.0000000000000000e+00  1.0000000000000000e+00  2.0820846580792470e-03  1.1727328983438599e-03  1.1821039970002895e-03  1.1815697270232840e-03  1.9764469870243747e-09  2.4595777781446346e-09  3.0957652913608625e-09  3.7929343795166326e-09  4.4593351271006849e-09  5.1047236602151508e-09  5.7268124670490688e-09  6.3732096539976357e-09  6.9967306080467922e-09  7.6409093081681501e-09  8.3114833865073948e-09  9.0662113914477808e-09  9.8661704292390663e-09  1.0738369044008184e-08  1.1709098857559863e-08  1.2802728486895024e-08  1.4081411385366953e-08  1.5463611503519576e-08  1.7015339026731512e-08  1.8768463855122392e-08  2.0639861604625217e-08  2.2702716628007224e-08  2.5029255878222478e-08  2.7468268861125489e-08  3.0162629986704704e-08  3.3082105865106230e-08  3.6233009765107693e-08  3.9708017775246994e-08  4.3327810672988397e-08  4.7321385404828383e-08  5.1526697666726316e-08  5.6027678552838890e-08  6.0809185465395776e-08  6.5938712276803412e-08  7.1361842042354992e-08  7.7057342145883065e-08  8.3078148174751770e-08  8.9444554900903701e-08  9.6116831579150104e-08  1.0304703535051693e-07  1.1034441895762070e-07  1.1798312855591841e-07  1.2582561258638527e-07  1.3406327864859018e-07  1.4252450734218969e-07  1.5140106298720261e-07  1.6042481385870270e-07  1.6973367673647269e-07  1.7939102217093230e-07  1.8923065654126478e-07  1.9932699840779182e-07  2.0966180698927585e-07  2.2033342812664734e-07  2.3122568742223447e-07  2.4213530478594571e-07  2.5329928689426756e-07  2.6470704535822116e-07  2.7636344422738056e-07  2.8817470271020544e-07  3.0009392737835965e-07  3.1243715738728318e-07  3.2502252733316584e-07  3.3753813978177458e-07  3.5038995821881117e-07  3.6355079381476180e-07  3.7674347463659860e-07  3.9044103613060236e-07  4.0422650151695429e-07  4.1832595895705831e-07  4.3287011154283474e-07  4.4780723162793337e-07  4.6318156233469024e-07  4.7896419819103508e-07  4.9502075277386393e-07  5.1172742693521635e-07  5.2917991956482905e-07  5.4716515150686032e-07  5.6606188495009492e-07  5.8611346874635327e-07  6.0694524885554699e-07  6.2933101885662636e-07  6.5274390629003704e-07  6.7764055475685064e-07  7.0455102765972888e-07  7.3398331879421349e-07  7.6574113742079260e-07  8.0071934999587083e-07  8.4031635892832267e-07  8.8417602284373321e-07  9.3480329778593225e-07  9.9308623634902047e-07  1.0639788183046478e-06  1.1475725978058786e-06  1.2529485440745510e-06  1.3880083867456745e-06  1.5656587774105528e-06  1.7986397420929256e-06  2.1041963270385870e-06  2.4989125919296665e-06  2.6270444124307672e-06  2.2574777593520793e-06  1.9690266991958599e-06  1.7437384339926821e-06  1.5824661001083810e-06  1.4637558390922064e-06  1.3764146994513448e-06  1.3093464830298313e-06  1.2569676507793791e-06  1.2161652993818923e-06  1.1830371343936073e-06  1.1568314509056720e-06  1.1353579227982841e-06  1.1184591601434817e-06  1.1043482600577915e-06  1.0927775766393107e-06  1.0836618385848258e-06  1.0762435064731355e-06  1.0702289872694174e-06  1.0658889561079239e-06  1.0628362967157530e-06  1.0615957125968906e-06  1.0625267302487238e-06  1.0667220427605932e-06  1.0762577612787479e-06  1.0948204200280555e-06  1.1298309177036519e-06  1.1912253437600525e-06  1.3071714058750847e-06  1.5201843732855666e-06  1.9055747882231286e-06  2.6331558865170483e-06  3.9397166200596365e-06  6.3452397296019358e-06  1.0625845908036967e-05  1.8763670644460538e-05  3.3594726372219586e-05  6.0840574705684823e-05  1.0982665962253508e-04  1.9721498521108822e-04  3.5943942190828302e-04  6.5192872065920860e-04  2.0748731556293654e-03  3.6545557662751812e-03  6.4446890979945343e-03  1.1189884994600731e-02  1.9597909038804734e-02  3.4402554810835886e-02  6.0181732781510872e-02  1.0527874406359877e-01  1.8362060685768278e-01  3.2595869321845594e-01  5.7231225979994060e-01  9.8549045671962743e-01  5.7408710434252186e-01  3.3091475649029156e-01  1.8527832626130847e-01  1.0559560059722217e-01  6.0389249904226297e-02  3.4438789185107198e-02  1.9666691245557193e-02  1.1173509589605649e-02  6.4671568405227642e-03  3.6826356949825260e-03  1.1567981850889291e-03  6.3748176920026464e-04  3.4952114261499906e-04  1.9434033914575720e-04  1.0733219604857616e-04  5.8932590489835106e-05  3.2591519445778878e-05  1.8133324789211711e-05  1.0540789108266913e-05  6.2811073778048294e-06  3.9663692696385536e-06  2.6833610381964366e-06  2.0055951468779919e-06  1.6327024645845041e-06  1.4315347518691779e-06  1.3258145499565666e-06  1.2664523130229961e-06  1.2353547272584878e-06  1.2193331461661994e-06  1.2116463323573769e-06  1.2084450632317148e-06  1.2082670454517774e-06  1.2086211849876651e-06  1.2107014219247360e-06  1.2125152841229218e-06  1.2148296235861754e-06  1.2178723144582012e-06  1.2198246238976212e-06  1.2222060540641338e-06  1.2247869182173841e-06  1.2272301257734675e-06  1.2293908977626434e-06  1.2313217276219250e-06  1.2333424855279241e-06  1.2351701274759031e-06  1.2368156507419003e-06  1.2381030452477573e-06  1.2394439145517513e-06  1.2403723329732788e-06  1.2417710805020176e-06  1.2414777725613420e-06  1.2420558148022899e-06  1.2337920864473457e-06  1.2161833592835784e-06  1.1939399287296555e-06  1.1695758140573038e-06  1.1442182693357205e-06  1.1188781875770928e-06  1.0940435892736885e-06  1.0698638881147130e-06  1.0458799232349544e-06  1.0225790766021238e-06  9.9991106906100604e-07  9.7792789786289117e-07  9.5614251715161277e-07  9.3515166132864110e-07  9.1458413118096258e-07  8.9432219480195184e-07  8.7455940993187462e-07  8.5517324988441000e-07  8.3621080607411788e-07  8.1728124745811538e-07  7.9884887604232246e-07  7.8047526096234168e-07  7.6244722929936115e-07  7.4426322577213334e-07  7.2639315365223198e-07  7.0872225471896075e-07  6.9083507718190879e-07  6.7307957378015141e-07  6.5490999655288563e-07  6.3701723347118870e-07  6.1895643126500808e-07  6.0082561601199091e-07  5.8242610878180990e-07  5.6391415758127955e-07  5.4530837871892080e-07  5.2660041785709072e-07  5.0777137080570117e-07  4.8882878606823825e-07  4.6970279924336704e-07  4.5020921675550931e-07  4.3093277436778452e-07  4.1161443794547334e-07  3.9236511371461699e-07  3.7326505219736636e-07  3.5404324799316232e-07  3.3524353253808697e-07  3.1630638645490839e-07  2.9767552977455703e-07  2.7948159283746011e-07  2.6173186964675106e-07  2.4444610413826966e-07  2.2733812641783701e-07  2.1110482181493122e-07  1.9523599722729695e-07  1.7990779029594733e-07  1.6541671122784595e-07  1.5138269675308374e-07  1.3808471454395646e-07  1.2553802874172112e-07  1.1361882784438867e-07  1.0254618990960177e-07  9.2060734399558750e-08  8.2357229846339278e-08  7.3315062587015556e-08  6.4973532980005652e-08  5.7265663792630655e-08  5.0129713567423001e-08  4.3731168672190852e-08  3.7812102848895243e-08  3.2497155120488573e-08  2.7684798020731937e-08  2.3398438160477128e-08  1.9537941048880055e-08  1.6160336488627574e-08  1.3143713076611560e-08  1.0524591623245379e-08  8.2932175454167966e-09  6.3574524540619843e-09  4.7527125153933272e-09  3.4221770419146649e-09  2.3702741302114769e-09  1.5829218870544645e-09  1.0380130475218378e-09  7.3474833105920516e-10  6.4879762756435651e-10  7.6713413095038473e-10  1.0770670657789061e-09  1.5594437292897798e-09  2.2044289559479147e-09  2.9937213447553667e-09  3.9491078014765206e-09  5.0651317076022605e-09  6.3690626720846279e-09  7.8299286226315044e-09  9.5013977945958037e-09  1.1313510111745360e-08  1.3276513616331076e-08  1.5186289615609028e-08  1.6761693339273289e-08  1.7555433109735351e-08  1.7498045028108163e-08  1.7464465056120002e-08  1.7267310407361657e-08  1.7115000472244183e-08  1.6918721894694374e-08  1.6670084711573724e-08  1.6415661411888694e-08  1.6089680658320503e-08  1.5769102946431486e-08  1.5413308055616103e-08  1.5027814398666950e-08  1.4602843872362979e-08  1.4153701044789793e-08  1.3692111074683800e-08  1.3221494110732111e-08  1.2759339051807762e-08  1.2322430729122817e-08  1.1965795889766354e-08  1.1805758281220996e-08  1.2004176303108817e-08  1.2865681985447741e-08  1.5021774083991835e-08  1.9608626984559010e-08  2.8625935264143119e-08  4.5909405655272170e-08  7.8328829913997070e-08  1.3952131213612922e-07  2.5357899984017621e-07  4.6438829321936803e-07  8.5363088421946907e-07  1.5609588460170512e-06  2.8732511302885804e-06  5.2968370617286418e-06  9.6258320484830760e-06  1.7807477809068872e-05  3.2580700170866777e-05  5.9489849987695780e-05  1.0813389159264885e-04  1.9581926313313186e-04  3.5979699029077382e-04  6.5481786341022605e-04  2.0961165216355389e-03  3.6840474897838625e-03  6.4858480964779357e-03  1.1256664967443248e-02  1.9737252567821481e-02  3.4720941325199421e-02  6.0782049345922767e-02  1.0622165162574859e-01  1.8493003603650479e-01  3.2702515526379849e-01  5.7160142369741185e-01  1.0000000000000000e+00  1.0000000000000000e+00  1.0000000000000000e+00  1.0000000000000000e+00  1.0000000000000000e+00  1.0000000000000000e+00  1.0000000000000000e+00  1.0000000000000000e+00  1.0000000000000000e+00  1.0000000000000000e+00  1.0000000000000000e+00  1.0000000000000000e+00  1.0000000000000000e+00  1.0000000000000000e+00  1.0000000000000000e+00  1.0000000000000000e+00  1.0000000000000000e+00  1.0000000000000000e+00  1.0000000000000000e+00  1.0000000000000000e+00  1.0000000000000000e+00  1.0000000000000000e+00  1.0000000000000000e+00  1.0000000000000000e+00  1.0000000000000000e+00  1.0000000000000000e+00  1.0000000000000000e+00  1.0000000000000000e+00  1.0000000000000000e+00  1.0000000000000000e+00  1.0000000000000000e+00  1.0000000000000000e+00  1.0000000000000000e+00  1.0000000000000000e+00  1.0000000000000000e+00  1.0000000000000000e+00  1.0000000000000000e+00  1.0000000000000000e+00  1.0000000000000000e+00  1.0000000000000000e+00  1.0000000000000000e+00  1.0000000000000000e+00  1.0000000000000000e+00  1.0000000000000000e+00  1.0000000000000000e+00  1.0000000000000000e+00  1.0000000000000000e+00  1.0000000000000000e+00  1.0000000000000000e+00  1.0000000000000000e+00  1.0000000000000000e+00  1.0000000000000000e+00  1.0000000000000000e+00  1.0000000000000000e+00  9.9999999999999989e-01  1.0000000000000000e+00  1.0000000000000000e+00  1.0000000000000000e+00  1.0000000000000000e+00  1.0000000000000000e+00  1.0000000000000000e+00  1.0000000000000000e+00  9.9999999999999989e-01  1.0000000000000000e+00  1.0000000000000000e+00  1.0000000000000000e+00  1.0000000000000000e+00  1.0000000000000000e+00  1.0000000000000000e+00  1.0000000000000000e+00  1.0000000000000000e+00  1.0000000000000000e+00  1.0000000000000000e+00  1.0000000000000000e+00  1.0000000000000000e+00  1.0000000000000000e+00  1.0000000000000000e+00  1.0000000000000000e+00  1.0000000000000000e+00  1.0000000000000000e+00  1.0000000000000000e+00  1.0000000000000000e+00  1.0000000000000000e+00  1.0000000000000000e+00  1.0000000000000000e+00  1.0000000000000000e+00  1.0000000000000000e+00  1.0000000000000000e+00  1.0000000000000000e+00  1.0000000000000000e+00  1.0000000000000000e+00  1.0000000000000000e+00  1.0000000000000000e+00  1.0000000000000000e+00  1.0000000000000000e+00  1.0000000000000000e+00  1.0000000000000000e+00  1.0000000000000000e+00  1.0000000000000000e+00  1.0000000000000000e+00  1.0000000000000000e+00  1.0000000000000000e+00  1.0000000000000000e+00  1.0000000000000000e+00  1.0000000000000000e+00  1.0000000000000000e+00  1.0000000000000000e+00  1.0000000000000000e+00  1.0000000000000000e+00  1.0000000000000000e+00  5.7157081540573207e-01  3.2704024578235280e-01  1.8489315725438113e-01  1.0623927488604459e-01  6.0789268505933629e-02  3.4726290638049932e-02  1.9744685378414447e-02  1.1258434724904278e-02  6.4895803026693011e-03  3.6859954681677850e-03  2.0973560523933153e-03  6.5513220208661350e-04  3.5991699271709402e-04  1.9537161103070746e-04  1.0819490331776275e-04  5.9557136352830088e-05  3.2618895128329246e-05  1.7822953991827040e-05  9.6358745569064065e-06  5.2999310639413471e-06  2.8743347896449339e-06  1.5617582907814287e-06  8.5426302766513606e-07  4.6487389543893750e-07  2.5372391375068409e-07  1.3942670799701968e-07  7.8024872458612315e-08  4.5385594791338959e-08  2.7868301544601953e-08  1.8565699413920377e-08  1.3659120905280829e-08  1.1143405022354254e-08  9.8715884790289318e-09  9.2170047995289328e-09  8.8629141323317212e-09  8.6504111092344591e-09  8.4752567171404302e-09  8.2861161235212293e-09  8.0438275490341818e-09  7.7442003813313913e-09  7.4003892880743850e-09  6.9870307728168547e-09  6.5179640271992951e-09  5.9998477705079376e-09  5.4332935121646875e-09  4.8518647477097463e-09  4.2838735719633781e-09  3.7031336733496144e-09  3.1319951665718427e-09  2.6239300724696120e-09  2.1794777176012980e-09  1.9565971905290169e-09  1.8081483421495397e-09  1.1789205005186100e-03  1.1823896413545010e-03  1.1825378682042119e-03  1.1783922734873067e-03  1.1725501154028553e-03  1.1865521428931379e-03  1.1823446998754318e-03  1.1649288273698933e-03  1.1761303973440581e-03  1.1877960664985695e-03  1.1644086693479788e-03  1.1772144913945834e-03  1.1866797487721709e-03  1.1848103212073612e-03  1.1827277173413152e-03  1.1728086073848564e-03  1.1708290376316521e-03  1.1599257335067400e-03  1.1781977951704440e-03  1.1818610821203663e-03  1.1710670325811956e-03  1.1707881371954103e-03  1.1852160185738432e-03  1.1857322938950581e-03  1.1735562311453824e-03  1.1765848533866550e-03  1.1783776274036711e-03  1.1720847759544718e-03  1.1845682763078520e-03  1.1781996785339805e-03  1.1702469975692089e-03  1.1758003884517973e-03  1.1763658180881298e-03  1.1653859376806457e-03  1.1765439216112885e-03  1.1925440226271287e-03  1.1657457325484968e-03  1.1823813116202881e-03  1.1817500272754634e-03  1.1674915494916183e-03  1.1922188928651038e-03  1.1867568080838283e-03  1.1722678393575625e-03  1.1877538878545539e-03  1.1776403113362322e-03  1.1860599503710088e-03  1.2155569574497788e-03  1.2378163760218299e-03  1.2541887818738901e-03  1.3072837780163176e-03  1.3634809343447810e-03  1.4194633821422271e-03  1.5295124501390814e-03  1.6180068405182654e-03  1.7097029938781961e-03  1.8244677045612763e-03  1.9016196681090382e-03  1.9484927122261023e-03  2.0430376171592496e-03  2.0702368782127374e-03  2.0792375841300228e-03  2.1042452659425104e-03  2.0665693330645329e-03  2.0824289972127151e-03  2.0817262219384926e-03  2.0761047795585831e-03  2.0537299860474791e-03  2.0163039397890535e-03  2.0443483762222748e-03  2.0488510070826014e-03  2.0362745056676482e-03  2.0204612849789466e-03  2.0229159881317632e-03  2.0168356378282609e-03  1.9836149208538770e-03  2.0001516923887422e-03  1.9892395527518095e-03  1.9694883379674827e-03  1.9885655645348254e-03  1.9763732559128690e-03  1.9622385771966887e-03  1.9857917784159140e-03  1.9956996438832996e-03  1.9755845068506399e-03  1.9686384144355089e-03  2.0181117688922875e-03  2.0116045752382439e-03  2.0135715214284035e-03  2.0136863546925767e-03  1.9873896363093247e-03  2.0097045397642014e-03  2.0265417536131560e-03  2.0270454422539916e-03  2.0279531165075040e-03  1.9970803458659375e-03  2.0260059216364065e-03  2.0421791199809070e-03  2.0516332166915082e-03  2.0411958963106451e-03  2.0463946001319606e-03  2.0586438773026283e-03  2.0703631593208057e-03  2.0717733835803015e-03  2.0852782823661104e-03  2.0955977002117140e-03  2.0849814658884377e-03  2.0904219576154564e-03  2.0857503417010845e-03  2.0668944383372256e-03  2.0962107194185679e-03  2.1102094581009929e-03  1.1794953857210664e-03  1.1825744700948953e-03  1.1827081817293330e-03  1.1785089776687784e-03  1.1727014302601367e-03  1.1871305341222701e-03  1.1825192269867262e-03  1.1653070899250082e-03  1.1759465139035668e-03  1.1871417339125792e-03  1.1659243427669900e-03  1.1762303456955084e-03  1.1856520761243505e-03  1.1836514319036838e-03  1.1814983961849215e-03  1.1721853233361201e-03  1.1690814778868874e-03  1.1560854007913158e-03  1.1758516097742269e-03  1.1836952292036552e-03  1.1735520004636207e-03  1.1746547274548115e-03  1.1869496933923918e-03  1.1876852251540340e-03  1.1745473894289953e-03  1.1772747079647329e-03  1.1795162231890246e-03  1.1732255442755794e-03  1.1848460108316071e-03  1.1787051696522488e-03  1.1700871946887987e-03  1.1742571320722047e-03  1.1733526474362735e-03  1.1623198673516237e-03  1.1733671708721285e-03  1.1899300757550297e-03  1.1625895183768244e-03  1.1791157820158333e-03  1.1773938484705866e-03  1.1627050728444369e-03  1.1881380374823562e-03  1.1816229352119114e-03  1.1669666414730665e-03  1.1812408958566741e-03  1.1665885621442026e-03  1.1665073590856902e-03  1.1815114843741733e-03  1.1826999455176682e-03  1.1675945184199247e-03  1.1770064640398540e-03  1.1772568287257807e-03  1.1600301965718476e-03  1.1784370409909067e-03  1.1755032132285070e-03  1.1680454971496744e-03  1.1772215917785496e-03  1.1732759252174516e-03  1.1577604899424315e-03  1.1795895495498533e-03  1.1751475911106295e-03  1.1676560340633808e-03  1.1773523878694492e-03  1.1560321300273218e-03  1.1666738109979123e-03  1.1694162711886563e-03  1.1695725520995792e-03  1.1606607023663350e-03  1.1439044104933516e-03  1.1647139917206916e-03  1.1733472218632122e-03  1.1719362180968701e-03  1.1664668906573724e-03  1.1742398379241739e-03  1.1763780339531015e-03  1.1627212758824731e-03  1.1779038828236407e-03  1.1764579803522754e-03  1.1684430332453957e-03  1.1816669892387313e-03  1.1740685157499756e-03  1.1630704747733628e-03  1.1731493399016371e-03  1.1741922718019487e-03  1.1598385150651551e-03  1.1492560699157446e-03  1.1737714840337698e-03  1.1673245307230271e-03  1.1677912686655191e-03  1.1690004605635033e-03  1.1552622006228196e-03  1.1688852708171349e-03  1.1786323710428715e-03  1.1765924475799360e-03  1.1727045342868315e-03  1.1510114435484013e-03  1.1650894533973078e-03  1.1724741045367310e-03  1.1766512827427391e-03  1.1680903519265084e-03  1.1677944582144135e-03  1.1701731309612024e-03  1.1723445696802393e-03  1.1699301071422137e-03  1.1750264045850220e-03  1.1795394658297184e-03  1.1735706467968148e-03  1.1756017089190863e-03  1.1735364419031427e-03  1.1622872360721231e-03  1.1797462508149853e-03  1.1893843234475558e-03  9.9226760707400841e-01  9.9771845872833875e-01  9.9353124384211233e-01  9.9499806122959855e-01  9.9571499549350229e-01  9.9513685391817353e-01  9.9559585807455475e-01  9.9598097235477845e-01  9.9484980349557173e-01  9.9533948023625585e-01  9.9398015169917231e-01  9.9713309405404593e-01  9.9444023238009327e-01  9.9616977814935226e-01  9.9560984436298061e-01  9.9610515157612345e-01  9.9592417346689377e-01  9.9584549017351220e-01  9.9610911678903813e-01  9.9608939526374218e-01  9.9618491941210685e-01  9.9628612539076933e-01  9.9633962264467724e-01  9.9663533851716513e-01  9.9664075255815465e-01  9.9485319830996699e-01  9.9822744125083307e-01  9.9532485703393248e-01  9.9676502555738888e-01  9.9558195903999536e-01  9.9486848108899295e-01  9.9494075393061232e-01  9.9566136964114116e-01  9.9676221934228026e-01  9.9529511658519010e-01  9.9840670896665218e-01  9.9493677899700894e-01  9.9493852227102630e-01  9.9797974386900157e-01  9.9439813819039358e-01  9.9531137396523039e-01  9.9505766961045161e-01  9.9624323312907681e-01  9.9586877441982824e-01  9.9544329318366220e-01  9.9552766692892503e-01  9.9465533754662205e-01  9.9536159854404227e-01  9.9585303942829362e-01  9.9523830126300483e-01  9.9585324901744854e-01  9.9520232052993163e-01  9.9590157551133007e-01  9.9411352261527286e-01  9.9651872758374060e-01  1.3242568248996309e-07  5.6801572961836698e-09  5.5133133813335780e-07  8.1969672797015845e-07  8.5932918574921363e-07  3.1260648233714689e-07  3.5145519641936807e-07  1.2903558235299435e-06  6.7286317204936283e-07  3.0374376501162033e-07  3.4487871350832318e-08  2.2818798928557820e-09  2.0769155761060410e-06  9.7587061268546603e-07  1.6883950932280724e-06  1.5100590031909271e-06  3.4401120286176716e-06  4.9287723235721377e-07  4.9383717114839713e-09  1.2812517918610442e-07  5.0581240879879002e