<?xml version="1.0"?>
<VTKFile type="UnstructuredGrid"  version="0.1"  >
<UnstructuredGrid>
<Piece  NumberOfPoints="15540" NumberOfCells="30546">
<Points>
<DataArray  type="Float64"  NumberOfComponents="3"  format="ascii">0 0 0  -0.5 -0.5 0  0.5 -0.5 0  0.5 0 0  0.5 0.5 0  -0.5 0.5 0  -0.5 0.0001 0  -0.5 -0.0001 0  0.5 0.1 0  0.5 -0.1 0  -0.5 -0.1 0  -0.5 0.1 0  -0.4900000000000277 -0.5 0  -0.4800000000000555 -0.5 0  -0.4700000000000832 -0.5 0  -0.4600000000001109 -0.5 0  -0.4500000000001387 -0.5 0  -0.4400000000001664 -0.5 0  -0.4300000000001942 -0.5 0  -0.4200000000002219 -0.5 0  -0.4100000000002497 -0.5 0  -0.4000000000002774 -0.5 0  -0.3900000000003052 -0.5 0  -0.3800000000003328 -0.5 0  -0.3700000000003606 -0.5 0  -0.3600000000003883 -0.5 0  -0.3500000000004161 -0.5 0  -0.3400000000004438 -0.5 0  -0.3300000000004716 -0.5 0  -0.3200000000004993 -0.5 0  -0.3100000000005271 -0.5 0  -0.3000000000005548 -0.5 0  -0.2900000000005825 -0.5 0  -0.2800000000006103 -0.5 0  -0.2700000000006381 -0.5 0  -0.2600000000006658 -0.5 0  -0.2500000000006935 -0.5 0  -0.2400000000007212 -0.5 0  -0.230000000000749 -0.5 0  -0.2200000000007767 -0.5 0  -0.2100000000008044 -0.5 0  -0.2000000000008322 -0.5 0  -0.19000000000086 -0.5 0  -0.1800000000008877 -0.5 0  -0.1700000000009154 -0.5 0  -0.1600000000009431 -0.5 0  -0.1500000000009709 -0.5 0  -0.1400000000009986 -0.5 0  -0.1300000000010264 -0.5 0  -0.1200000000010541 -0.5 0  -0.1100000000010818 -0.5 0  -0.1000000000011096 -0.5 0  -0.09000000000113734 -0.5 0  -0.08000000000116503 -0.5 0  -0.07000000000119283 -0.5 0  -0.06000000000122058 -0.5 0  -0.05000000000124827 -0.5 0  -0.04000000000127607 -0.5 0  -0.03000000000130376 -0.5 0  -0.02000000000133151 -0.5 0  -0.01000000000135925 -0.5 0  -1.376121439022882e-12 -0.5 0  0.009999999998640763 -0.5 0  0.01999999999866864 -0.5 0  0.02999999999869629 -0.5 0  0.03999999999872406 -0.5 0  0.04999999999875182 -0.5 0  0.05999999999877947 -0.5 0  0.06999999999880724 -0.5 0  0.079999999998835 -0.5 0  0.08999999999886266 -0.5 0  0.09999999999889042 -0.5 0  0.1099999999989182 -0.5 0  0.1199999999989459 -0.5 0  0.1299999999989737 -0.5 0  0.1399999999990014 -0.5 0  0.1499999999990291 -0.5 0  0.1599999999990568 -0.5 0  0.1699999999990847 -0.5 0  0.1799999999991124 -0.5 0  0.1899999999991401 -0.5 0  0.1999999999991678 -0.5 0  0.2099999999991955 -0.5 0  0.2199999999992234 -0.5 0  0.2299999999992511 -0.5 0  0.2399999999992788 -0.5 0  0.2499999999993066 -0.5 0  0.2599999999993342 -0.5 0  0.269999999999362 -0.5 0  0.2799999999993897 -0.5 0  0.2899999999994175 -0.5 0  0.2999999999994452 -0.5 0  0.3099999999994729 -0.5 0  0.3199999999995007 -0.5 0  0.3299999999995284 -0.5 0  0.3399999999995562 -0.5 0  0.3499999999995839 -0.5 0  0.3599999999996116 -0.5 0  0.3699999999996393 -0.5 0  0.379999999999667 -0.5 0  0.3899999999996949 -0.5 0  0.3999999999997226 -0.5 0  0.4099999999997503 -0.5 0  0.419999999999778 -0.5 0  0.4299999999998058 -0.5 0  0.4399999999998336 -0.5 0  0.4499999999998613 -0.5 0  0.4599999999998891 -0.5 0  0.4699999999999167 -0.5 0  0.4799999999999445 -0.5 0  0.4899999999999722 -0.5 0  0.5 -0.4902110204681464 0  0.5 -0.4804459958734807 0  0.5 -0.4707048677450883 0  0.5 -0.4609875815766065 0  0.5 -0.4512940759251849 0  0.5 -0.4416242912883993 0  0.5 -0.4319781678689807 0  0.5 -0.4223556545383647 0  0.5 -0.4127566896324213 0  0.5 -0.4031812128200121 0  0.5 -0.3936291733057916 0  0.5 -0.3841005081172659 0  0.5 -0.3745951585781932 0  0.5 -0.3651130778999337 0  0.5 -0.3556541993788045 0  0.5 -0.3462184677228392 0  0.5 -0.3368058273705318 0  0.5 -0.3274162224888609 0  0.5 -0.3180495969712945 0  0.5 -0.3087058944357755 0  0.5 -0.299385058222682 0  0.5 -0.2900870313927414 0  0.5 -0.2808117567250807 0  0.5 -0.2715591844628491 0  0.5 -0.2623292564012653 0  0.5 -0.253121909553727 0  0.5 -0.2439371050851549 0  0.5 -0.2347747685524501 0  0.5 -0.2256348634421331 0  0.5 -0.2165173209784076 0  0.5 -0.207422087829958 0  0.5 -0.1983491207029381 0  0.5 -0.1892983550950482 0  0.5 -0.1802697378305253 0  0.5 -0.1712632154965152 0  0.5 -0.1622787344187354 0  0.5 -0.1533162406595534 0  0.5 -0.1443756800160514 0  0.5 -0.1354569980180493 0  0.5 -0.1265601399261414 0  0.5 -0.1176850622761093 0  0.5 -0.1088317009011999 0  0.5 -0.09166666666668973 0  0.5 -0.08333333333337943 0  0.5 -0.07500000000006915 0  0.5 -0.06666666666675886 0  0.5 -0.05833333333344858 0  0.5 -0.05000000000013693 0  0.5 -0.04166666666678191 0  0.5 -0.03333333333342643 0  0.5 -0.02500000000006916 0  0.5 -0.01666666666671188 0  0.5 -0.00833333333335548 0  0.5 0.008333333333318314 0  0.5 0.01666666666663358 0  0.5 0.02499999999994162 0  0.5 0.03333333333325101 0  0.5 0.04166666666655769 0  0.5 0.04999999999986843 0  0.5 0.05833333333322258 0  0.5 0.06666666666657715 0  0.5 0.07499999999993352 0  0.5 0.08333333333328992 0  0.5 0.09166666666664541 0  0.5 0.1088317009011616 0  0.5 0.1176850622760307 0  0.5 0.1265601399260203 0  0.5 0.1354569980178909 0  0.5 0.1443756800158549 0  0.5 0.153316240659315 0  0.5 0.1622787344184454 0  0.5 0.1712632154961752 0  0.5 0.1802697378301332 0  0.5 0.1892983550946039 0  0.5 0.1983491207024433 0  0.5 0.2074220878294123 0  0.5 0.216517320977811 0  0.5 0.2256348634414833 0  0.5 0.2347747685517479 0  0.5 0.2439371050844009 0  0.5 0.2531219095529224 0  0.5 0.2623292564004089 0  0.5 0.2715591844619371 0  0.5 0.2808117567241139 0  0.5 0.290087031391723 0  0.5 0.2993850582216101 0  0.5 0.3087058944347426 0  0.5 0.3180495969703129 0  0.5 0.3274162224879299 0  0.5 0.3368058273696494 0  0.5 0.3462184677220051 0  0.5 0.3556541993780186 0  0.5 0.3651130778991989 0  0.5 0.3745951585775107 0  0.5 0.3841005081166359 0  0.5 0.3936291733052134 0  0.5 0.4031812128194852 0  0.5 0.412756689631945 0  0.5 0.4223556545379392 0  0.5 0.431978167868607 0  0.5 0.4416242912880781 0  0.5 0.4512940759249164 0  0.5 0.4609875815763912 0  0.5 0.4707048677449264 0  0.5 0.4804459958733726 0  0.5 0.4902110204680924 0  0.4900000000000277 0.5 0  0.4800000000000555 0.5 0  0.4700000000000832 0.5 0  0.4600000000001109 0.5 0  0.4500000000001387 0.5 0  0.4400000000001664 0.5 0  0.4300000000001942 0.5 0  0.4200000000002219 0.5 0  0.4100000000002497 0.5 0  0.4000000000002774 0.5 0  0.3900000000003052 0.5 0  0.3800000000003328 0.5 0  0.3700000000003606 0.5 0  0.3600000000003883 0.5 0  0.3500000000004161 0.5 0  0.3400000000004438 0.5 0  0.3300000000004716 0.5 0  0.3200000000004993 0.5 0  0.3100000000005271 0.5 0  0.3000000000005548 0.5 0  0.2900000000005825 0.5 0  0.2800000000006103 0.5 0  0.2700000000006381 0.5 0  0.2600000000006658 0.5 0  0.2500000000006935 0.5 0  0.2400000000007212 0.5 0  0.230000000000749 0.5 0  0.2200000000007767 0.5 0  0.2100000000008044 0.5 0  0.2000000000008322 0.5 0  0.19000000000086 0.5 0  0.1800000000008877 0.5 0  0.1700000000009154 0.5 0  0.1600000000009431 0.5 0  0.1500000000009709 0.5 0  0.1400000000009986 0.5 0  0.1300000000010264 0.5 0  0.1200000000010541 0.5 0  0.1100000000010818 0.5 0  0.1000000000011096 0.5 0  0.09000000000113734 0.5 0  0.08000000000116503 0.5 0  0.07000000000119283 0.5 0  0.06000000000122058 0.5 0  0.05000000000124827 0.5 0  0.04000000000127607 0.5 0  0.03000000000130376 0.5 0  0.02000000000133151 0.5 0  0.01000000000135925 0.5 0  1.376121439022882e-12 0.5 0  -0.009999999998640763 0.5 0  -0.01999999999866864 0.5 0  -0.02999999999869629 0.5 0  -0.03999999999872406 0.5 0  -0.04999999999875182 0.5 0  -0.05999999999877947 0.5 0  -0.06999999999880724 0.5 0  -0.079999999998835 0.5 0  -0.08999999999886266 0.5 0  -0.09999999999889042 0.5 0  -0.1099999999989182 0.5 0  -0.1199999999989459 0.5 0  -0.1299999999989737 0.5 0  -0.1399999999990014 0.5 0  -0.1499999999990291 0.5 0  -0.1599999999990568 0.5 0  -0.1699999999990847 0.5 0  -0.1799999999991124 0.5 0  -0.1899999999991401 0.5 0  -0.1999999999991678 0.5 0  -0.2099999999991955 0.5 0  -0.2199999999992234 0.5 0  -0.2299999999992511 0.5 0  -0.2399999999992788 0.5 0  -0.2499999999993066 0.5 0  -0.2599999999993342 0.5 0  -0.269999999999362 0.5 0  -0.2799999999993897 0.5 0  -0.2899999999994175 0.5 0  -0.2999999999994452 0.5 0  -0.3099999999994729 0.5 0  -0.3199999999995007 0.5 0  -0.3299999999995284 0.5 0  -0.3399999999995562 0.5 0  -0.3499999999995839 0.5 0  -0.3599999999996116 0.5 0  -0.3699999999996393 0.5 0  -0.379999999999667 0.5 0  -0.3899999999996949 0.5 0  -0.3999999999997226 0.5 0  -0.4099999999997503 0.5 0  -0.419999999999778 0.5 0  -0.4299999999998058 0.5 0  -0.4399999999998336 0.5 0  -0.4499999999998613 0.5 0  -0.4599999999998891 0.5 0  -0.4699999999999167 0.5 0  -0.4799999999999445 0.5 0  -0.4899999999999722 0.5 0  -0.5 0.4902110204681464 0  -0.5 0.4804459958734807 0  -0.5 0.4707048677450883 0  -0.5 0.4609875815766065 0  -0.5 0.4512940759251849 0  -0.5 0.4416242912883993 0  -0.5 0.4319781678689807 0  -0.5 0.4223556545383647 0  -0.5 0.4127566896324213 0  -0.5 0.4031812128200121 0  -0.5 0.3936291733057916 0  -0.5 0.3841005081172659 0  -0.5 0.3745951585781932 0  -0.5 0.3651130778999337 0  -0.5 0.3556541993788045 0  -0.5 0.3462184677228392 0  -0.5 0.3368058273705318 0  -0.5 0.3274162224888609 0  -0.5 0.3180495969712945 0  -0.5 0.3087058944357755 0  -0.5 0.299385058222682 0  -0.5 0.2900870313927414 0  -0.5 0.2808117567250807 0  -0.5 0.2715591844628491 0  -0.5 0.2623292564012653 0  -0.5 0.253121909553727 0  -0.5 0.2439371050851549 0  -0.5 0.2347747685524501 0  -0.5 0.2256348634421331 0  -0.5 0.2165173209784076 0  -0.5 0.207422087829958 0  -0.5 0.1983491207029381 0  -0.5 0.1892983550950482 0  -0.5 0.1802697378305253 0  -0.5 0.1712632154965152 0  -0.5 0.1622787344187354 0  -0.5 0.1533162406595534 0  -0.5 0.1443756800160514 0  -0.5 0.1354569980180493 0  -0.5 0.1265601399261414 0  -0.5 0.1176850622761093 0  -0.5 0.1088317009011999 0  -0.5 0.09167500000001694 0  -0.5 0.08335000000003931 0  -0.5 0.07502500000006167 0  -0.5 0.06670000000008947 0  -0.5 0.05837500000011001 0  -0.5 0.0500500000001328 0  -0.5 0.0417250000001127 0  -0.5 0.03340000000008944 0  -0.5 0.02507500000006573 0  -0.5 0.01675000000004653 0  -0.5 0.008425000000027341 
[...]
<PointData  Scalars="f_25"> 
<DataArray  type="Float64"  Name="f_25"  format="ascii">1.0000000000000000e+00  1.3479626189028484e-04  1.1725471664987810e-01  2.0126311473933876e-02  4.2127471936868999e-02  7.9166685041752460e-04  1.0000000000000000e+00  1.0000000000000000e+00  2.2883607277178409e-02  2.1183301114979351e-02  1.2042444564473703e-03  1.2006527681190766e-03  1.3370996160428104e-04  1.5161679573163700e-04  1.8426560705984120e-04  2.2273011564780755e-04  2.6138997022188011e-04  2.9957337904365050e-04  3.3665373040146985e-04  3.7497327310437117e-04  4.1197740664242151e-04  4.5015875812199870e-04  4.8995102981660304e-04  5.3427600214103689e-04  5.8079287247478383e-04  6.3062521851652855e-04  6.8510507324050858e-04  7.4542991652861400e-04  8.1488287919255302e-04  8.8911083572405260e-04  9.7150291504185767e-04  1.0637442601631609e-03  1.1614146937761105e-03  1.2682785894809923e-03  1.3880059511628990e-03  1.5128068598047378e-03  1.6499320085921496e-03  1.7977682570710471e-03  1.9565742922122041e-03  2.1309548009486854e-03  2.3117056728116387e-03  2.5104278186826885e-03  2.7187603387266806e-03  2.9408379703383418e-03  3.1758364717865096e-03  3.4269029260467769e-03  3.6911499815036465e-03  3.9675652624659155e-03  4.2585667422079271e-03  4.5648157969319257e-03  4.8844043129320468e-03  5.2147439678096423e-03  5.5610603432940152e-03  5.9214735595746011e-03  6.2896146109164431e-03  6.6739276995181080e-03  7.0671663172258157e-03  7.4767659925567120e-03  7.8917464729167299e-03  8.3158028700772036e-03  8.7525706128485908e-03  9.1949017208088415e-03  9.6463413255269397e-03  1.0103673773740498e-02  1.0571318447329966e-02  1.1047288254932085e-02  1.1517870261937596e-02  1.1993647725361557e-02  1.2477769478186527e-02  1.2967243144333425e-02  1.3457210987942721e-02  1.3945012629176414e-02  1.4445273841522489e-02  1.4952474803729417e-02  1.5446179272578386e-02  1.5949402116491186e-02  1.6460359630402446e-02  1.6959807613552248e-02  1.7477209766684831e-02  1.7986118419808697e-02  1.8501565956867867e-02  1.9028819459035683e-02  1.9563673807389811e-02  2.0106699552255809e-02  2.0660105909389815e-02  2.1213168216297228e-02  2.1786998655943440e-02  2.2383972106438593e-02  2.2990903935410593e-02  2.3630217156002366e-02  2.4309538412255867e-02  2.5014107712660192e-02  2.5776136461783603e-02  2.6576064954807774e-02  2.7434692813062773e-02  2.8374110184696204e-02  2.9414956212222246e-02  3.0555661547967891e-02  3.1835714687211428e-02  3.3313619527555210e-02  3.4983779912970706e-02  3.6953009764472688e-02  3.9274848244874094e-02  4.2145691965962906e-02  4.5596649524253255e-02  5.0018399609693606e-02  5.5778596707981680e-02  6.3365328866544987e-02  7.3371025862649222e-02  8.6408281230676356e-02  1.0311039566250690e-01  1.0766740867564090e-01  9.0622422968595143e-02  7.6973453565251690e-02  6.6311567521366716e-02  5.8623472812830077e-02  5.2943506934939003e-02  4.8721300284396599e-02  4.5467142060731464e-02  4.2894158726196153e-02  4.0836983233382702e-02  3.9114804726572104e-02  3.7690619073187263e-02  3.6464887458073185e-02  3.5431602775071715e-02  3.4500265907659394e-02  3.3659022557417512e-02  3.2926069658450935e-02  3.2236026285125709e-02  3.1580510147712737e-02  3.0983976231818887e-02  3.0384878084964279e-02  2.9842831972161345e-02  2.9299189911908101e-02  2.8770805096638864e-02  2.8260312904277250e-02  2.7769266110962323e-02  2.7297458510380873e-02  2.6821335817389980e-02  2.6370276280128609e-02  2.5904038668908079e-02  2.5454125358829315e-02  2.5015225250125922e-02  2.4592519499452497e-02  2.4188543488210801e-02  2.3782722254941387e-02  2.3403489204793272e-02  2.3030770938662903e-02  2.2675642335167171e-02  2.2337944118946726e-02  2.2004537535397713e-02  2.1724944989700554e-02  2.1451343967694762e-02  2.0972195581775311e-02  2.0775022792093846e-02  2.0597944193463662e-02  2.0454619624657746e-02  2.0321123811615174e-02  2.0212488938226775e-02  2.0141270948410988e-02  2.0086550394820147e-02  2.0041522264804313e-02  2.0058954834035889e-02  2.0088384576499890e-02  2.0222674664241158e-02  2.0326965436622685e-02  2.0458422980679205e-02  2.0628337763137890e-02  2.0815379598772003e-02  2.1036042650393147e-02  2.1287660555026372e-02  2.1558727917600502e-02  2.1840649429846180e-02  2.2174054124416535e-02  2.2520082044798127e-02  2.3314093002504567e-02  2.3755175287090029e-02  2.4208398652463926e-02  2.4709237144581397e-02  2.5224010204265779e-02  2.5754908495099826e-02  2.6308054603203165e-02  2.6871261446096854e-02  2.7455411036404656e-02  2.8040031728822950e-02  2.8644393219398323e-02  2.9258794715568952e-02  2.9885855159335426e-02  3.0518279542673395e-02  3.1143086424508342e-02  3.1759738277294620e-02  3.2371753298461356e-02  3.2987553694612162e-02  3.3605053369580376e-02  3.4218236783973781e-02  3.4816108509325601e-02  3.5397656309486755e-02  3.5962174255641279e-02  3.6517608108584718e-02  3.7043145657690152e-02  3.7553015215127092e-02  3.8051384015713043e-02  3.8506860244942549e-02  3.8950890355800821e-02  3.9370847974713116e-02  3.9771650048638377e-02  4.0136550026060272e-02  4.0473538990140751e-02  4.0781394315798782e-02  4.1058796515321357e-02  4.1308227050007078e-02  4.1520173759476628e-02  4.1709456046357257e-02  4.1859970723682596e-02  4.1994047449587887e-02  4.2054687932380055e-02  4.2111538049437236e-02  4.1886990565062100e-02  4.1404543260790606e-02  4.0821947507676336e-02  4.0215748571369260e-02  3.9619856902184461e-02  3.9057504337050797e-02  3.8541012266602372e-02  3.8067692028234013e-02  3.7626152837934884e-02  3.7217606903310975e-02  3.6842265182353472e-02  3.6496580768871786e-02  3.6166184956818448e-02  3.5857271129542262e-02  3.5559781723322338e-02  3.5268378396696755e-02  3.4985401926407048e-02  3.4705451688374030e-02  3.4422400333297506e-02  3.4128055248171744e-02  3.3829807150557570e-02  3.3514936308593979e-02  3.3186315920535329e-02  3.2833262665127337e-02  3.2461359594823824e-02  3.2067965376562847e-02  3.1642816177658850e-02  3.1192403387065658e-02  3.0700781417655667e-02  3.0186415262113978e-02  2.9636061511863751e-02  2.9053209961931711e-02  2.8431307802415883e-02  2.7775289244449428e-02  2.7086697800955236e-02  2.6365586890996006e-02  2.5613644364496424e-02  2.4832605835727665e-02  2.4020575816386090e-02  2.3168757828833465e-02  2.2305282799405531e-02  2.1421047514203428e-02  2.0522300678427176e-02  1.9613760429490645e-02  1.8685171462163301e-02  1.7763469332656188e-02  1.6822744436908212e-02  1.5886612210813576e-02  1.4963380149814434e-02  1.4054039724572942e-02  1.3160600584592046e-02  1.2269683699165961e-02  1.1418518208020315e-02  1.0581863088983524e-02  9.7697394072561172e-03  8.9983590003112571e-03  8.2486789799229420e-03  7.5350958545131437e-03  6.8598995951681110e-03  6.2170070765608957e-03  5.6179317577182610e-03  5.0495375002900678e-03  4.5228291666705115e-03  4.0314751740067340e-03  3.5774196168385178e-03  3.1572709741552875e-03  2.7679852897238466e-03  2.4186892875612954e-03  2.0953510365375057e-03  1.8047931707066882e-03  1.5416068106620577e-03  1.3070983042948764e-03  1.0954900053252140e-03  9.1011496033309382e-04  7.4422239095215813e-04  5.9983897211891358e-04  4.7638507617409173e-04  3.6872129555655359e-04  2.7882958235636319e-04  2.0351318917676147e-04  1.4274781726898413e-04  9.6015257165319972e-05  6.1929556373186762e-05  4.0373477154984443e-05  3.0235891156682120e-05  3.0598211970364283e-05  4.0953796336671232e-05  6.0203435127932688e-05  8.7747463225406626e-05  1.2257756124415948e-04  1.6553321133084382e-04  2.1628870141225803e-04  2.7603024383771014e-04  3.4324396847693484e-04  4.2030345518230549e-04  5.0393427969047070e-04  5.9452113719209274e-04  6.8261679256224753e-04  7.5521986100438401e-04  7.9184052254775770e-04  7.8942955576783737e-04  7.8826164322614081e-04  7.7972269067008541e-04  7.7340530368560825e-04  7.6519658798701541e-04  7.5467322952503112e-04  7.4397112010488129e-04  7.3005311360828363e-04  7.1645689681594288e-04  7.0125025028800858e-04  6.8464652859118462e-04  6.6614038505531702e-04  6.4627448556973401e-04  6.2545786987349805e-04  6.0342858383875765e-04  5.8033131285228760e-04  5.5569593872548497e-04  5.2987944904685192e-04  5.0360135556412372e-04  4.7676845965079331e-04  4.4858011238275758e-04  4.2026879610440517e-04  3.9178529969279810e-04  3.6279501017400661e-04  3.3426560213048527e-04  3.0719497833814834e-04  2.7960417100696599e-04  2.5258200553910265e-04  2.2650293449294449e-04  2.0108159709363594e-04  1.7801420174013647e-04  1.5697965853653242e-04  1.3793116810605562e-04  1.2262524864547884e-04  1.1356138767241487e-04  1.1229042123649039e-04  1.2476187694343015e-04  1.6085410499421576e-04  2.3741884583768753e-04  3.9267509942670162e-04  6.8024197920924922e-04  2.1107434476411156e-03  3.6949665690342863e-03  6.4938515628477373e-03  1.1262496914663134e-02  1.9741368946943009e-02  3.4723842468929504e-02  6.0784082575803790e-02  1.0622302484616246e-01  1.8493091764584968e-01  3.2702569583876484e-01  5.7160167805801321e-01  1.0000000000000000e+00  1.0000000000000000e+00  1.0000000000000000e+00  1.0000000000000000e+00  1.0000000000000000e+00  1.0000000000000000e+00  1.0000000000000000e+00  1.0000000000000000e+00  1.0000000000000000e+00  1.0000000000000000e+00  1.0000000000000000e+00  1.0000000000000000e+00  1.0000000000000000e+00  1.0000000000000000e+00  1.0000000000000000e+00  1.0000000000000000e+00  1.0000000000000000e+00  1.0000000000000000e+00  1.0000000000000000e+00  1.0000000000000000e+00  1.0000000000000000e+00  1.0000000000000000e+00  1.0000000000000000e+00  1.0000000000000000e+00  1.0000000000000000e+00  1.0000000000000000e+00  1.0000000000000000e+00  1.0000000000000000e+00  1.0000000000000000e+00  1.0000000000000000e+00  1.0000000000000000e+00  1.0000000000000000e+00  1.0000000000000000e+00  1.0000000000000000e+00  1.0000000000000000e+00  1.0000000000000000e+00  1.0000000000000000e+00  1.0000000000000000e+00  1.0000000000000000e+00  1.0000000000000000e+00  1.0000000000000000e+00  9.9999999999999989e-01  1.0000000000000000e+00  1.0000000000000000e+00  1.0000000000000000e+00  1.0000000000000000e+00  1.0000000000000000e+00  1.0000000000000000e+00  1.0000000000000000e+00  1.0000000000000000e+00  1.0000000000000000e+00  1.0000000000000000e+00  1.0000000000000000e+00  1.0000000000000000e+00  1.0000000000000000e+00  1.0000000000000000e+00  1.0000000000000000e+00  1.0000000000000000e+00  1.0000000000000000e+00  1.0000000000000000e+00  1.0000000000000000e+00  1.0000000000000000e+00  1.0000000000000000e+00  1.0000000000000000e+00  1.0000000000000000e+00  1.0000000000000000e+00  1.0000000000000000e+00  1.0000000000000000e+00  1.0000000000000000e+00  1.0000000000000000e+00  1.0000000000000000e+00  1.0000000000000000e+00  1.0000000000000000e+00  1.0000000000000000e+00  1.0000000000000000e+00  9.9999999999999989e-01  1.0000000000000000e+00  1.0000000000000000e+00  1.0000000000000000e+00  1.0000000000000000e+00  1.0000000000000000e+00  1.0000000000000000e+00  1.0000000000000000e+00  1.0000000000000000e+00  1.0000000000000000e+00  1.0000000000000000e+00  1.0000000000000000e+00  1.0000000000000000e+00  1.0000000000000000e+00  1.0000000000000000e+00  1.0000000000000000e+00  1.0000000000000000e+00  1.0000000000000000e+00  1.0000000000000000e+00  1.0000000000000000e+00  1.0000000000000000e+00  1.0000000000000000e+00  1.0000000000000000e+00  1.0000000000000000e+00  1.0000000000000000e+00  1.0000000000000000e+00  1.0000000000000000e+00  1.0000000000000000e+00  1.0000000000000000e+00  1.0000000000000000e+00  1.0000000000000000e+00  1.0000000000000000e+00  1.0000000000000000e+00  1.0000000000000000e+00  1.0000000000000000e+00  5.7157111951109796e-01  3.2704089179150841e-01  1.8489421042720586e-01  1.0624091431559610e-01  6.0791693362704416e-02  3.4729746228980951e-02  1.9749581482596913e-02  1.1265345398153432e-02  6.4990221688299484e-03  3.6988018545168534e-03  2.1144080959290185e-03  6.8436384314890812e-04  3.9737519196543112e-04  2.4243655749498145e-04  1.6705551509285692e-04  1.3164130220071134e-04  1.1959157565473154e-04  1.2098280141792405e-04  1.2987109298264919e-04  1.4429602085657805e-04  1.6192484788983503e-04  1.8098071600065825e-04  2.0069695885000530e-04  2.2183032436745383e-04  2.4243355107890860e-04  2.6241440980883057e-04  2.8180684627385802e-04  2.9872616195946659e-04  3.1521672125228516e-04  3.2983579708600934e-04  3.4207195416971226e-04  3.5217855586653463e-04  3.5958294747486175e-04  3.6375507826507699e-04  3.6451002245071291e-04  3.6226110884526750e-04  3.5697009280657516e-04  3.4843194950576992e-04  3.3606522333720672e-04  3.2052672631971717e-04  3.0283880950771383e-04  2.8210312739019688e-04  2.5926583866030061e-04  2.3477375022604703e-04  2.0891132230392093e-04  1.8334692313789737e-04  1.6026765725035084e-04  1.3823533613007894e-04  1.1915668444532420e-04  1.0621834947555226e-04  9.9875592681210725e-05  1.0932962613886402e-04  1.2415513565379365e-04  1.1997545552387085e-03  1.2077994651542182e-03  1.2147196013216834e-03  1.2192246377679000e-03  1.2236013039839467e-03  1.2492425648507448e-03  1.2579840066118118e-03  1.2543468620924713e-03  1.2804664272336292e-03  1.3074172109800867e-03  1.2995995960950583e-03  1.3283346258200846e-03  1.3533990127755019e-03  1.3666898361378529e-03  1.3791741906844562e-03  1.3829537155334456e-03  1.3936320808425945e-03  1.3941642622306561e-03  1.4227428978390915e-03  1.4347824879718978e-03  1.4308489150256455e-03  1.4355686043084710e-03  1.4528112796520192e-03  1.4536667369292914e-03  1.4403129595042703e-03  1.4393931375367471e-03  1.4347996460205342e-03  1.4209264564175601e-03  1.4233675026679600e-03  1.4056164232516253e-03  1.3859640110272648e-03  1.3793361215290727e-03  1.3700816924949498e-03  1.3519199488864337e-03  1.3618918180126084e-03  1.3887733873732531e-03  1.3831721917678724e-03  1.4436012030715000e-03  1.5178886511313190e-03  1.6152495775105258e-03  1.8102987791219932e-03  2.0510251559394755e-03  2.3798964879103764e-03  2.8645052659182842e-03  3.4989618108800997e-03  4.3619483076877651e-03  5.5161492468576139e-03  6.9946494757290303e-03  8.8602742460942869e-03  1.1205005960598126e-02  1.4078247081558762e-02  1.7515825133118453e-02  2.1539646436354330e-02  2.5911655608459282e-02  3.0602307166870315e-02  3.5465014576605267e-02  4.0150126154845853e-02  4.4391475181361884e-02  4.8068699809111583e-02  5.0911694789071871e-02  5.2869347368157245e-02  5.3999108539067427e-02  5.4360280887357171e-02  5.4086759637828684e-02  5.3308993895661606e-02  5.2164166109942796e-02  5.0810695474565411e-02  4.9304776565088908e-02  4.7750923499605552e-02  4.6178220240664279e-02  4.4691271362777917e-02  4.3263465860740952e-02  4.1924718287477729e-02  4.0685780729770263e-02  3.9553241081942657e-02  3.8513219722718761e-02  3.7563058534928077e-02  3.6714420202021314e-02  3.5946064496298079e-02  3.5252739220316506e-02  3.4619178477333173e-02  3.4041323418251362e-02  3.3518330353378013e-02  3.3040398625493003e-02  3.2592917204112559e-02  3.2188083070011260e-02  3.1810066991406483e-02  3.1460955120241975e-02  3.1129053771557447e-02  3.0806791182704969e-02  3.0503918309634885e-02  3.0210542378825589e-02  2.9915549585225510e-02  2.9621549125106689e-02  2.9323505069877326e-02  2.9026375359688744e-02  2.8722609231972809e-02  2.8406141590203826e-02  2.8077589671571968e-02  2.7733054334959900e-02  2.7373162340364753e-02  2.6995172328663788e-02  2.6600125996916666e-02  2.6182167127729899e-02  2.5741017700434278e-02  2.5283181793831051e-02  2.4804221552585833e-02  2.4318853704670813e-02  2.3837757900384820e-02  2.3393659196353458e-02  2.3044994631098891e-02  1.2034180078604819e-03  1.2111950943388232e-03  1.2182432893383126e-03  1.2227977220572689e-03  1.2272298483895182e-03  1.2531782886647865e-03  1.2611892682339069e-03  1.2572149742406760e-03  1.2819512728492193e-03  1.3073457280120154e-03  1.3003783579214727e-03  1.3250598632113591e-03  1.3483423329375935e-03  1.3595817933251162e-03  1.3700081581841904e-03  1.3724225678892130e-03  1.3800202587236591e-03  1.3765497932161593e-03  1.4048491920301851e-03  1.4194702391064809e-03  1.4147936857583081e-03  1.4197576439459723e-03  1.4338324694854290e-03  1.4343132186925415e-03  1.4196988591213019e-03  1.4184545296775776e-03  1.4145515066645727e-03  1.4010540051238795e-03  1.4031745652617195e-03  1.3863202691096243e-03  1.3665160877503590e-03  1.3587273708459912e-03  1.3477441774917265e-03  1.3284767033000717e-03  1.3363821347928933e-03  1.3604624912855177e-03  1.3488235057510178e-03  1.4012826354050077e-03  1.4631682186946272e-03  1.5450062264479338e-03  1.7204827314947744e-03  1.9328179661475240e-03  2.2272674647878048e-03  2.6685889569908884e-03  3.2456865128136286e-03  4.0380356278802753e-03  5.1057761283977597e-03  6.4811537676963994e-03  8.2268917660507038e-03  1.0437488148991052e-02  1.3163973808730880e-02  1.6448861041423634e-02  2.0315766035660363e-02  2.4551257341277215e-02  2.9131060290730499e-02  3.3917153253338404e-02  3.8577560402729839e-02  4.2862972813107525e-02  4.6633827498353049e-02  4.9630668699083884e-02  5.1788511595286815e-02  5.3140060745726518e-02  5.3739219734271579e-02  5.3704541450284936e-02  5.3141808223675313e-02  5.2197655175643204e-02  5.1021021624847465e-02  4.9663445246051235e-02  4.8230974265698189e-02  4.6751035990018425e-02  4.5342129538254082e-02  4.3974558785437545e-02  4.2672046936214604e-02  4.1461658067964285e-02  4.0346908817227446e-02  3.9315282374425740e-02  3.8365246577965952e-02  3.7509744661561102e-02  3.6729152785709013e-02  3.6020778094372159e-02  3.5367816730800854e-02  3.4765457030340327e-02  3.4215879212212322e-02  3.3706701174746279e-02  3.3226271938615548e-02  3.2783238105537640e-02  3.2363641106039315e-02  3.1970579260033584e-02  3.1590583184867890e-02  3.1214747022028127e-02  3.0854415025312387e-02  3.0498633334164280e-02  3.0135794879961174e-02  2.9769920054094595e-02  2.9393341070966590e-02  2.9013016088119861e-02  2.8621441091881430e-02  2.8210484292649076e-02  2.7782569878003309e-02  2.7332448306129038e-02  2.6861658223165198e-02  2.6369419547170168e-02  2.5855128742089450e-02  2.5315682235322504e-02  2.4750764640438218e-02  2.4166593211224097e-02  2.3562807138138700e-02  2.2953147572031238e-02  2.2353173784190619e-02  2.1806520350914401e-02  2.1377628826781570e-02  6.5392400333651490e-01  4.4901776148772443e-01  3.0795885718133298e-01  2.2042879054218617e-01  1.6313679303092116e-01  1.2447518083729750e-01  9.8346274813511436e-02  8.0791202867283043e-02  6.8245125363613046e-02  5.9380735818141003e-02  5.2844151358641372e-02  4.7873044669133891e-02  4.4117323707413648e-02  4.1195789036522781e-02  3.8892933666940847e-02  3.7039882078496664e-02  3.5557611259202551e-02  3.4341674302996165e-02  3.3333231494795168e-02  3.2508250847358186e-02  3.1816394428507255e-02  3.1225697018989296e-02  3.0735394461043630e-02  3.0313869460156195e-02  2.9953810453834717e-02  2.9648246819208340e-02  2.9367741686986595e-02  2.9131967285915838e-02  2.8913300568713222e-02  2.8711414259814456e-02  2.8530860103043756e-02  2.8363122004438440e-02  2.8194551261236891e-02  2.8022060143918819e-02  2.7847312129092767e-02  2.7662258341380020e-02  2.7475676200927449e-02  2.7272694817340806e-02  2.7054897683914610e-02  2.6821298090901276e-02  2.6567877502924560e-02  2.6293022228749807e-02  2.5990583740545848e-02  2.5663262110357243e-02  2.5300987106181089e-02  2.4909841653737198e-02  2.4488511283685219e-02  2.4028254028061240e-02  2.3537521389674659e-02  2.3008024054726121e-02  2.2449688738817187e-02  2.1873767191733985e-02  2.1294483876533345e-02  2.0759536822916400e-02  2.0321703708528326e-02  7.0102149675667288e-03  1.6896511174479561e-04  2.9444053997262520e-02  3.5253981963509311e-02  2.1831522072100408e-02  8.3852697316456198e-04  2.2359254584788167e-04  3.7246854611019384e-02  3.2384397172650167e-02  1.6347705289851796e-02  1.8748852479807748e-03  8.9951764231746374e-05  3.2143092081984403e-02  3.5995612860875208e-02  6.4849319128326881e-03  1.5500165201454537e-04  3.7687425532220577e-02  2.5501633531656329e-02  2.7181234799800223e-04  6.9718874961007026e-03  3.4487680535541521e