<?xml version="1.0"?>
<VTKFile type="UnstructuredGrid"  version="0.1"  >
<UnstructuredGrid>
<Piece  NumberOfPoints="15540" NumberOfCells="30546">
<Points>
<DataArray  type="Float64"  NumberOfComponents="3"  format="ascii">0 0 0  -0.5 -0.5 0  0.5 -0.5 0  0.5 0 0  0.5 0.5 0  -0.5 0.5 0  -0.5 0.0001 0  -0.5 -0.0001 0  0.5 0.1 0  0.5 -0.1 0  -0.5 -0.1 0  -0.5 0.1 0  -0.4900000000000277 -0.5 0  -0.4800000000000555 -0.5 0  -0.4700000000000832 -0.5 0  -0.4600000000001109 -0.5 0  -0.4500000000001387 -0.5 0  -0.4400000000001664 -0.5 0  -0.4300000000001942 -0.5 0  -0.4200000000002219 -0.5 0  -0.4100000000002497 -0.5 0  -0.4000000000002774 -0.5 0  -0.3900000000003052 -0.5 0  -0.3800000000003328 -0.5 0  -0.3700000000003606 -0.5 0  -0.3600000000003883 -0.5 0  -0.3500000000004161 -0.5 0  -0.3400000000004438 -0.5 0  -0.3300000000004716 -0.5 0  -0.3200000000004993 -0.5 0  -0.3100000000005271 -0.5 0  -0.3000000000005548 -0.5 0  -0.2900000000005825 -0.5 0  -0.2800000000006103 -0.5 0  -0.2700000000006381 -0.5 0  -0.2600000000006658 -0.5 0  -0.2500000000006935 -0.5 0  -0.2400000000007212 -0.5 0  -0.230000000000749 -0.5 0  -0.2200000000007767 -0.5 0  -0.2100000000008044 -0.5 0  -0.2000000000008322 -0.5 0  -0.19000000000086 -0.5 0  -0.1800000000008877 -0.5 0  -0.1700000000009154 -0.5 0  -0.1600000000009431 -0.5 0  -0.1500000000009709 -0.5 0  -0.1400000000009986 -0.5 0  -0.1300000000010264 -0.5 0  -0.1200000000010541 -0.5 0  -0.1100000000010818 -0.5 0  -0.1000000000011096 -0.5 0  -0.09000000000113734 -0.5 0  -0.08000000000116503 -0.5 0  -0.07000000000119283 -0.5 0  -0.06000000000122058 -0.5 0  -0.05000000000124827 -0.5 0  -0.04000000000127607 -0.5 0  -0.03000000000130376 -0.5 0  -0.02000000000133151 -0.5 0  -0.01000000000135925 -0.5 0  -1.376121439022882e-12 -0.5 0  0.009999999998640763 -0.5 0  0.01999999999866864 -0.5 0  0.02999999999869629 -0.5 0  0.03999999999872406 -0.5 0  0.04999999999875182 -0.5 0  0.05999999999877947 -0.5 0  0.06999999999880724 -0.5 0  0.079999999998835 -0.5 0  0.08999999999886266 -0.5 0  0.09999999999889042 -0.5 0  0.1099999999989182 -0.5 0  0.1199999999989459 -0.5 0  0.1299999999989737 -0.5 0  0.1399999999990014 -0.5 0  0.1499999999990291 -0.5 0  0.1599999999990568 -0.5 0  0.1699999999990847 -0.5 0  0.1799999999991124 -0.5 0  0.1899999999991401 -0.5 0  0.1999999999991678 -0.5 0  0.2099999999991955 -0.5 0  0.2199999999992234 -0.5 0  0.2299999999992511 -0.5 0  0.2399999999992788 -0.5 0  0.2499999999993066 -0.5 0  0.2599999999993342 -0.5 0  0.269999999999362 -0.5 0  0.2799999999993897 -0.5 0  0.2899999999994175 -0.5 0  0.2999999999994452 -0.5 0  0.3099999999994729 -0.5 0  0.3199999999995007 -0.5 0  0.3299999999995284 -0.5 0  0.3399999999995562 -0.5 0  0.3499999999995839 -0.5 0  0.3599999999996116 -0.5 0  0.3699999999996393 -0.5 0  0.379999999999667 -0.5 0  0.3899999999996949 -0.5 0  0.3999999999997226 -0.5 0  0.4099999999997503 -0.5 0  0.419999999999778 -0.5 0  0.4299999999998058 -0.5 0  0.4399999999998336 -0.5 0  0.4499999999998613 -0.5 0  0.4599999999998891 -0.5 0  0.4699999999999167 -0.5 0  0.4799999999999445 -0.5 0  0.4899999999999722 -0.5 0  0.5 -0.4902110204681464 0  0.5 -0.4804459958734807 0  0.5 -0.4707048677450883 0  0.5 -0.4609875815766065 0  0.5 -0.4512940759251849 0  0.5 -0.4416242912883993 0  0.5 -0.4319781678689807 0  0.5 -0.4223556545383647 0  0.5 -0.4127566896324213 0  0.5 -0.4031812128200121 0  0.5 -0.3936291733057916 0  0.5 -0.3841005081172659 0  0.5 -0.3745951585781932 0  0.5 -0.3651130778999337 0  0.5 -0.3556541993788045 0  0.5 -0.3462184677228392 0  0.5 -0.3368058273705318 0  0.5 -0.3274162224888609 0  0.5 -0.3180495969712945 0  0.5 -0.3087058944357755 0  0.5 -0.299385058222682 0  0.5 -0.2900870313927414 0  0.5 -0.2808117567250807 0  0.5 -0.2715591844628491 0  0.5 -0.2623292564012653 0  0.5 -0.253121909553727 0  0.5 -0.2439371050851549 0  0.5 -0.2347747685524501 0  0.5 -0.2256348634421331 0  0.5 -0.2165173209784076 0  0.5 -0.207422087829958 0  0.5 -0.1983491207029381 0  0.5 -0.1892983550950482 0  0.5 -0.1802697378305253 0  0.5 -0.1712632154965152 0  0.5 -0.1622787344187354 0  0.5 -0.1533162406595534 0  0.5 -0.1443756800160514 0  0.5 -0.1354569980180493 0  0.5 -0.1265601399261414 0  0.5 -0.1176850622761093 0  0.5 -0.1088317009011999 0  0.5 -0.09166666666668973 0  0.5 -0.08333333333337943 0  0.5 -0.07500000000006915 0  0.5 -0.06666666666675886 0  0.5 -0.05833333333344858 0  0.5 -0.05000000000013693 0  0.5 -0.04166666666678191 0  0.5 -0.03333333333342643 0  0.5 -0.02500000000006916 0  0.5 -0.01666666666671188 0  0.5 -0.00833333333335548 0  0.5 0.008333333333318314 0  0.5 0.01666666666663358 0  0.5 0.02499999999994162 0  0.5 0.03333333333325101 0  0.5 0.04166666666655769 0  0.5 0.04999999999986843 0  0.5 0.05833333333322258 0  0.5 0.06666666666657715 0  0.5 0.07499999999993352 0  0.5 0.08333333333328992 0  0.5 0.09166666666664541 0  0.5 0.1088317009011616 0  0.5 0.1176850622760307 0  0.5 0.1265601399260203 0  0.5 0.1354569980178909 0  0.5 0.1443756800158549 0  0.5 0.153316240659315 0  0.5 0.1622787344184454 0  0.5 0.1712632154961752 0  0.5 0.1802697378301332 0  0.5 0.1892983550946039 0  0.5 0.1983491207024433 0  0.5 0.2074220878294123 0  0.5 0.216517320977811 0  0.5 0.2256348634414833 0  0.5 0.2347747685517479 0  0.5 0.2439371050844009 0  0.5 0.2531219095529224 0  0.5 0.2623292564004089 0  0.5 0.2715591844619371 0  0.5 0.2808117567241139 0  0.5 0.290087031391723 0  0.5 0.2993850582216101 0  0.5 0.3087058944347426 0  0.5 0.3180495969703129 0  0.5 0.3274162224879299 0  0.5 0.3368058273696494 0  0.5 0.3462184677220051 0  0.5 0.3556541993780186 0  0.5 0.3651130778991989 0  0.5 0.3745951585775107 0  0.5 0.3841005081166359 0  0.5 0.3936291733052134 0  0.5 0.4031812128194852 0  0.5 0.412756689631945 0  0.5 0.4223556545379392 0  0.5 0.431978167868607 0  0.5 0.4416242912880781 0  0.5 0.4512940759249164 0  0.5 0.4609875815763912 0  0.5 0.4707048677449264 0  0.5 0.4804459958733726 0  0.5 0.4902110204680924 0  0.4900000000000277 0.5 0  0.4800000000000555 0.5 0  0.4700000000000832 0.5 0  0.4600000000001109 0.5 0  0.4500000000001387 0.5 0  0.4400000000001664 0.5 0  0.4300000000001942 0.5 0  0.4200000000002219 0.5 0  0.4100000000002497 0.5 0  0.4000000000002774 0.5 0  0.3900000000003052 0.5 0  0.3800000000003328 0.5 0  0.3700000000003606 0.5 0  0.3600000000003883 0.5 0  0.3500000000004161 0.5 0  0.3400000000004438 0.5 0  0.3300000000004716 0.5 0  0.3200000000004993 0.5 0  0.3100000000005271 0.5 0  0.3000000000005548 0.5 0  0.2900000000005825 0.5 0  0.2800000000006103 0.5 0  0.2700000000006381 0.5 0  0.2600000000006658 0.5 0  0.2500000000006935 0.5 0  0.2400000000007212 0.5 0  0.230000000000749 0.5 0  0.2200000000007767 0.5 0  0.2100000000008044 0.5 0  0.2000000000008322 0.5 0  0.19000000000086 0.5 0  0.1800000000008877 0.5 0  0.1700000000009154 0.5 0  0.1600000000009431 0.5 0  0.1500000000009709 0.5 0  0.1400000000009986 0.5 0  0.1300000000010264 0.5 0  0.1200000000010541 0.5 0  0.1100000000010818 0.5 0  0.1000000000011096 0.5 0  0.09000000000113734 0.5 0  0.08000000000116503 0.5 0  0.07000000000119283 0.5 0  0.06000000000122058 0.5 0  0.05000000000124827 0.5 0  0.04000000000127607 0.5 0  0.03000000000130376 0.5 0  0.02000000000133151 0.5 0  0.01000000000135925 0.5 0  1.376121439022882e-12 0.5 0  -0.009999999998640763 0.5 0  -0.01999999999866864 0.5 0  -0.02999999999869629 0.5 0  -0.03999999999872406 0.5 0  -0.04999999999875182 0.5 0  -0.05999999999877947 0.5 0  -0.06999999999880724 0.5 0  -0.079999999998835 0.5 0  -0.08999999999886266 0.5 0  -0.09999999999889042 0.5 0  -0.1099999999989182 0.5 0  -0.1199999999989459 0.5 0  -0.1299999999989737 0.5 0  -0.1399999999990014 0.5 0  -0.1499999999990291 0.5 0  -0.1599999999990568 0.5 0  -0.1699999999990847 0.5 0  -0.1799999999991124 0.5 0  -0.1899999999991401 0.5 0  -0.1999999999991678 0.5 0  -0.2099999999991955 0.5 0  -0.2199999999992234 0.5 0  -0.2299999999992511 0.5 0  -0.2399999999992788 0.5 0  -0.2499999999993066 0.5 0  -0.2599999999993342 0.5 0  -0.269999999999362 0.5 0  -0.2799999999993897 0.5 0  -0.2899999999994175 0.5 0  -0.2999999999994452 0.5 0  -0.3099999999994729 0.5 0  -0.3199999999995007 0.5 0  -0.3299999999995284 0.5 0  -0.3399999999995562 0.5 0  -0.3499999999995839 0.5 0  -0.3599999999996116 0.5 0  -0.3699999999996393 0.5 0  -0.379999999999667 0.5 0  -0.3899999999996949 0.5 0  -0.3999999999997226 0.5 0  -0.4099999999997503 0.5 0  -0.419999999999778 0.5 0  -0.4299999999998058 0.5 0  -0.4399999999998336 0.5 0  -0.4499999999998613 0.5 0  -0.4599999999998891 0.5 0  -0.4699999999999167 0.5 0  -0.4799999999999445 0.5 0  -0.4899999999999722 0.5 0  -0.5 0.4902110204681464 0  -0.5 0.4804459958734807 0  -0.5 0.4707048677450883 0  -0.5 0.4609875815766065 0  -0.5 0.4512940759251849 0  -0.5 0.4416242912883993 0  -0.5 0.4319781678689807 0  -0.5 0.4223556545383647 0  -0.5 0.4127566896324213 0  -0.5 0.4031812128200121 0  -0.5 0.3936291733057916 0  -0.5 0.3841005081172659 0  -0.5 0.3745951585781932 0  -0.5 0.3651130778999337 0  -0.5 0.3556541993788045 0  -0.5 0.3462184677228392 0  -0.5 0.3368058273705318 0  -0.5 0.3274162224888609 0  -0.5 0.3180495969712945 0  -0.5 0.3087058944357755 0  -0.5 0.299385058222682 0  -0.5 0.2900870313927414 0  -0.5 0.2808117567250807 0  -0.5 0.2715591844628491 0  -0.5 0.2623292564012653 0  -0.5 0.253121909553727 0  -0.5 0.2439371050851549 0  -0.5 0.2347747685524501 0  -0.5 0.2256348634421331 0  -0.5 0.2165173209784076 0  -0.5 0.207422087829958 0  -0.5 0.1983491207029381 0  -0.5 0.1892983550950482 0  -0.5 0.1802697378305253 0  -0.5 0.1712632154965152 0  -0.5 0.1622787344187354 0  -0.5 0.1533162406595534 0  -0.5 0.1443756800160514 0  -0.5 0.1354569980180493 0  -0.5 0.1265601399261414 0  -0.5 0.1176850622761093 0  -0.5 0.1088317009011999 0  -0.5 0.09167500000001694 0  -0.5 0.08335000000003931 0  -0.5 0.07502500000006167 0  -0.5 0.06670000000008947 0  -0.5 0.05837500000011001 0  -0.5 0.0500500000001328 0  -0.5 0.0417250000001127 0  -0.5 0.03340000000008944 0  -0.5 0.02507500000006573 0  -0.5 0.01675000000004653 0  -0.5 0.008425000000027341 
[...]
<PointData  Scalars="f_25"> 
<DataArray  type="Float64"  Name="f_25"  format="ascii">9.9999999999999989e-01  2.6578561793175571e-09  4.2877723901382720e-06  9.9418688284093171e-01  1.8792467248488122e-06  2.6578353684336799e-08  1.0000000000000000e+00  1.0000000000000000e+00  2.0799078239723975e-03  1.1726107450046662e-03  1.1821042320577255e-03  1.1815699289702067e-03  2.9600914816956845e-09  3.6870315434409779e-09  4.6400214785084737e-09  5.6837206167397774e-09  6.6804600565553074e-09  7.6456243510175575e-09  8.5760335617072809e-09  9.5431698912459304e-09  1.0476328201482246e-08  1.1440498160122384e-08  1.2444144463697546e-08  1.3573806315859541e-08  1.4771288228639146e-08  1.6077433170005470e-08  1.7531872838799522e-08  1.9171300698959676e-08  2.1089117534694017e-08  2.3162972687212651e-08  2.5492022206751099e-08  2.8124235250973225e-08  3.0934845261288209e-08  3.4033755916239917e-08  3.7529707763258055e-08  4.1195433747241291e-08  4.5245814798648679e-08  4.9635473866359648e-08  5.4374051743284323e-08  5.9601235218843453e-08  6.5047137922583132e-08  7.1056450403209152e-08  7.7385486657645212e-08  8.4160719677792795e-08  9.1359513608421303e-08  9.9083731743295333e-08  1.0725171618638006e-07  1.1583133830720680e-07  1.2490251930535018e-07  1.3449639028823322e-07  1.4455284476022920e-07  1.5500001531108423e-07  1.6600253335188359e-07  1.7752238054019775e-07  1.8935153876093171e-07  2.0177940607845009e-07  2.1454610735261620e-07  2.2794267263414071e-07  2.4156296852828409e-07  2.5561757987913053e-07  2.7020137510649182e-07  2.8506270800008996e-07  3.0031415115653226e-07  3.1592977929368447e-07  3.3205774247773027e-07  3.4852043628809093e-07  3.6501353234698049e-07  3.8189506806824148e-07  3.9914666712943818e-07  4.1677742306129705e-07  4.3464585170825436e-07  4.5268105023799169e-07  4.7136000745966951e-07  4.9040691451822004e-07  5.0935269655782930e-07  5.2880887798579953e-07  5.4873452031643478e-07  5.6871222478651703e-07  5.8945470013587428e-07  6.1033345779434340e-07  6.3168841922578335e-07  6.5371742449430035e-07  6.7634257839713189e-07  6.9963087878049600e-07  7.2353763030267649e-07  7.4786026339005002e-07  7.7316665059225751e-07  7.9960201370979829e-07  8.2684429639520707e-07  8.5546538722717605e-07  8.8583369238975425e-07  9.1738197486323990e-07  9.5128115283413849e-07  9.8673350129116428e-07  1.0244295089502204e-06  1.0651714490673011e-06  1.1097276759977223e-06  1.1578000458613641e-06  1.2107426428982488e-06  1.2706710473522963e-06  1.3370445342993982e-06  1.4136528466610990e-06  1.5018365275171299e-06  1.6090908154780131e-06  1.7355489954279351e-06  1.8949451529555575e-06  2.0992236507321352e-06  2.3679035767306452e-06  2.7202384829013526e-06  3.1823017861684303e-06  3.7791636443677584e-06  3.9729435740746257e-06  3.4142106903285974e-06  2.9781580005959078e-06  2.6376086279723680e-06  2.3938529519034417e-06  2.2144462611937731e-06  2.0824629525869234e-06  1.9811250613643107e-06  1.9019902097954466e-06  1.8403522719863133e-06  1.7903125815497837e-06  1.7507317757880149e-06  1.7182981194242959e-06  1.6927710480005649e-06  1.6714488102373353e-06  1.6539538575481332e-06  1.6401427709416509e-06  1.6288621616811924e-06  1.6196469684997753e-06  1.6128460252049917e-06  1.6078011652368014e-06  1.6051197338755915e-06  1.6050523265839991e-06  1.6086803178424757e-06  1.6180718172572708e-06  1.6368824370535711e-06  1.6725254522959271e-06  1.7349894514713104e-06  1.8522657372166894e-06  2.0672130662779886e-06  2.4548746148698834e-06  3.1851576685194215e-06  4.4945728577097766e-06  6.9028928403262660e-06  1.1186096819820225e-05  1.9324652361544721e-05  3.4153218546950586e-05  6.1389599462895357e-05  1.1035318885073136e-04  1.9769580606082972e-04  3.5982472057678039e-04  6.5213457500423201e-04  2.0741690247051661e-03  3.6528222586813355e-03  6.4411255167209245e-03  1.1183197997963738e-02  1.9585682882693696e-02  3.4380586322715019e-02  6.0142860211028923e-02  1.0521055220214448e-01  1.8350233300918314e-01  3.2575088065647123e-01  5.7195425338541639e-01  9.8353144527059921e-01  5.7295208196674108e-01  3.3027932590594145e-01  1.8494698488474851e-01  1.0541634932834931e-01  6.0291604052223134e-02  3.4385756087807126e-02  1.9637666101306239e-02  1.1157756780349509e-02  6.4585698100856686e-03  3.6781621601755356e-03  1.1559167869724136e-03  6.3730839711752783e-04  3.4972920351156699e-04  1.9474552380225604e-04  1.0784334272191232e-04  5.9499077606750576e-05  3.3185372997985656e-05  1.8740377995748143e-05  1.1152797898995919e-05  6.8950796669259163e-06  4.5805606089373030e-06  3.2969662504760682e-06  2.6186427735927615e-06  2.2451476025926664e-06  2.0441011329380250e-06  1.9382243978054506e-06  1.8792002139009417e-06  1.8486365667035566e-06  1.8333579988243377e-06  1.8265917420995312e-06  1.8244118411619821e-06  1.8256178211047721e-06  1.8269747396453959e-06  1.8306037166760545e-06  1.8336321567871412e-06  1.8373206077000734e-06  1.8420495378659588e-06  1.8450921805878086e-06  1.8487637042354167e-06  1.8527225608868136e-06  1.8564641215045319e-06  1.8597701373820425e-06  1.8627225917037470e-06  1.8658060689045128e-06  1.8685932682847294e-06  1.8711016355814431e-06  1.8730645354335539e-06  1.8751061739255221e-06  1.8765207339611491e-06  1.8786456617406414e-06  1.8782054866020753e-06  1.8790835998272601e-06  1.8665644412378751e-06  1.8398883670105394e-06  1.8061934581781558e-06  1.7692891105516055e-06  1.7308832578548959e-06  1.6925069670898701e-06  1.6548989203803588e-06  1.6182846575860360e-06  1.5819681014543716e-06  1.5466865935445157e-06  1.5123629062051641e-06  1.4790753196813780e-06  1.4460853378089216e-06  1.4142960892548325e-06  1.3831451023339746e-06  1.3524530586072601e-06  1.3225127280083514e-06  1.2931385469397896e-06  1.2644016326048462e-06  1.2357096551160800e-06  1.2077662739965902e-06  1.1799069920733533e-06  1.1525670837252659e-06  1.1249864324791171e-06  1.0978779862680293e-06  1.0710691368690982e-06  1.0439295886252874e-06  1.0169876639374052e-06  9.8941686210693873e-07  9.6226594556883716e-07  9.3486092628388359e-07  9.0735169347998359e-07  8.7943728369363055e-07  8.5135569222942884e-07  8.2313624621776305e-07  7.9476658987390722e-07  7.6621937626639372e-07  7.3750679246553323e-07  7.0852373387744014e-07  6.7899178147503082e-07  6.4979631125728083e-07  6.2054604071110096e-07  5.9140964947874770e-07  5.6250793789425769e-07  5.3343103050509312e-07  5.0500209504101705e-07  4.7637456497534537e-07  4.4821925107003878e-07  4.2073338273163934e-07  3.9392759719168731e-07  3.6783098383183177e-07  3.4201104304508910e-07  3.1751914461011653e-07  2.9358487872632104e-07  2.7047331095337264e-07  2.4863091450963501e-07  2.2748369067835379e-07  2.0745211221209489e-07  1.8855762604684474e-07  1.7061355470264686e-07  1.5394907311764877e-07  1.3817283216458086e-07  1.2357722933774878e-07  1.0998034400834372e-07  9.7440698118934657e-08  8.5856954940991722e-08  7.5135781105912912e-08  6.5525242135603057e-08  5.6637405287926496e-08  4.8659170110128710e-08  4.1437481128878485e-08  3.5007080130870372e-08  2.9217763114526396e-08  2.4154392003776773e-08  1.9634013750755228e-08  1.5711074612670552e-08  1.2370722562910546e-08  9.4747764488108463e-09  7.0759925086864346e-09  5.0892534994235096e-09  3.5214320956610979e-09  2.3507871073376320e-09  1.5444375615308580e-09  1.1011260478696256e-09  9.8388845917787529e-10  1.1734768804847513e-09  1.6503957240527404e-09  2.3861540971830382e-09  3.3661781739745193e-09  4.5630883108082290e-09  6.0101258963431852e-09  7.6991575512219622e-09  9.6715125082876522e-09  1.1880509038615112e-08  1.4407454742654156e-08  1.7146675123122711e-08  2.0113822843535452e-08  2.3000437496506531e-08  2.5381690990928707e-08  2.6581331645407449e-08  2.6494152094991130e-08  2.6442694994077886e-08  2.6143669522223909e-08  2.5912123469253050e-08  2.5613837672412382e-08  2.5236178640581890e-08  2.4849530044305481e-08  2.4354418723880050e-08  2.3867086747692062e-08  2.3326042079484900e-08  2.2739380710936909e-08  2.2091667917077129e-08  2.1405103258821762e-08  2.0695232668218577e-08  1.9963669628246865e-08  1.9229612370002559e-08  1.8504205522355144e-08  1.7846987413175532e-08  1.7382365794597621e-08  1.7271737641698327e-08  1.7810311852156886e-08  1.9643658479181845e-08  2.3907101295318705e-08  3.2596865977525358e-08  4.9559586279905534e-08  8.1675268131366540e-08  1.4256006302679770e-07  2.5631660739008385e-07  4.6683549960239236e-07  8.5579406870722762e-07  1.5628610629416471e-06  2.8749093429336556e-06  5.2982614330266196e-06  9.6270432014808257e-06  1.7808502342827162e-05  3.2581551479471164e-05  5.9490545882401261e-05  1.0813445275158045e-04  1.9581970515821989e-04  3.5979733918701531e-04  6.5481813283950582e-04  2.0961166762998341e-03  3.6840476051286037e-03  6.4858481809466550e-03  1.1256665028949763e-02  1.9737252611208064e-02  3.4720941355768309e-02  6.0782049367341516e-02  1.0622165164021159e-01  1.8493003604578925e-01  3.2702515526949094e-01  5.7160142370009037e-01  1.0000000000000000e+00  1.0000000000000000e+00  1.0000000000000000e+00  1.0000000000000000e+00  1.0000000000000000e+00  1.0000000000000000e+00  1.0000000000000000e+00  1.0000000000000000e+00  9.9999999999999989e-01  1.0000000000000000e+00  1.0000000000000000e+00  1.0000000000000000e+00  1.0000000000000000e+00  1.0000000000000000e+00  1.0000000000000000e+00  1.0000000000000000e+00  1.0000000000000000e+00  1.0000000000000000e+00  1.0000000000000000e+00  1.0000000000000000e+00  9.9999999999999989e-01  1.0000000000000000e+00  1.0000000000000000e+00  1.0000000000000000e+00  1.0000000000000000e+00  1.0000000000000000e+00  1.0000000000000000e+00  1.0000000000000000e+00  1.0000000000000000e+00  1.0000000000000000e+00  1.0000000000000000e+00  1.0000000000000000e+00  1.0000000000000000e+00  1.0000000000000000e+00  1.0000000000000000e+00  1.0000000000000000e+00  1.0000000000000000e+00  1.0000000000000000e+00  1.0000000000000000e+00  1.0000000000000000e+00  1.0000000000000000e+00  1.0000000000000000e+00  1.0000000000000000e+00  1.0000000000000000e+00  1.0000000000000000e+00  1.0000000000000000e+00  9.9999999999999989e-01  1.0000000000000000e+00  1.0000000000000000e+00  1.0000000000000000e+00  1.0000000000000000e+00  1.0000000000000000e+00  1.0000000000000000e+00  1.0000000000000000e+00  1.0000000000000000e+00  1.0000000000000000e+00  1.0000000000000000e+00  1.0000000000000000e+00  1.0000000000000000e+00  1.0000000000000000e+00  1.0000000000000000e+00  1.0000000000000000e+00  1.0000000000000000e+00  1.0000000000000000e+00  1.0000000000000000e+00  1.0000000000000000e+00  1.0000000000000000e+00  1.0000000000000000e+00  1.0000000000000000e+00  1.0000000000000000e+00  1.0000000000000000e+00  1.0000000000000000e+00  1.0000000000000000e+00  1.0000000000000000e+00  1.0000000000000000e+00  1.0000000000000000e+00  1.0000000000000000e+00  1.0000000000000000e+00  1.0000000000000000e+00  1.0000000000000000e+00  1.0000000000000000e+00  1.0000000000000000e+00  1.0000000000000000e+00  1.0000000000000000e+00  1.0000000000000000e+00  1.0000000000000000e+00  1.0000000000000000e+00  1.0000000000000000e+00  1.0000000000000000e+00  1.0000000000000000e+00  1.0000000000000000e+00  1.0000000000000000e+00  1.0000000000000000e+00  1.0000000000000000e+00  1.0000000000000000e+00  1.0000000000000000e+00  1.0000000000000000e+00  1.0000000000000000e+00  1.0000000000000000e+00  1.0000000000000000e+00  1.0000000000000000e+00  1.0000000000000000e+00  1.0000000000000000e+00  1.0000000000000000e+00  1.0000000000000000e+00  1.0000000000000000e+00  1.0000000000000000e+00  1.0000000000000000e+00  1.0000000000000000e+00  1.0000000000000000e+00  5.7157081540893195e-01  3.2704024578915081e-01  1.8489315726546590e-01  1.0623927490330370e-01  6.0789268531471256e-02  3.4726290674458697e-02  1.9744685430030003e-02  1.1258434797839049e-02  6.4895804024411845e-03  3.6859956037106662e-03  2.0973562331818882e-03  6.5513251317303792e-04  3.5991739227637644e-04  1.9537211421192694e-04  1.0819553435846899e-04  5.9557911234962391e-05  3.2619832744647545e-05  1.7824069468589004e-05  9.6371783911256538e-06  5.3014431572658298e-06  2.8760707740831439e-06  1.5637227806732550e-06  8.5645928996860737e-07  4.6731573916181228e-07  2.5640560585363017e-07  1.4234304714737633e-07  8.1170356839276083e-08  4.8735968750153174e-08  3.1421049876522604e-08  2.2303236807647749e-08  1.7557252753689441e-08  1.5180607215464329e-08  1.4020240378760596e-08  1.3442594684135915e-08  1.3130035549852760e-08  1.2927138315616397e-08  1.2727751096995162e-08  1.2477951533509812e-08  1.2132784416990191e-08  1.1692977707208858e-08  1.1181978752912134e-08  1.0563578167060368e-08  9.8595079375256115e-09  9.0803902791756847e-09  8.2272544328884562e-09  7.3507606749839305e-09  6.4930055371426610e-09  5.6148096004707533e-09  4.7492640052786992e-09  3.9764747048025762e-09  3.2972294483766630e-09  2.9480727063014038e-09  2.7103205486344629e-09  1.1789207213202828e-03  1.1823899113752583e-03  1.1825382111338523e-03  1.1783927096877546e-03  1.1725506619523808e-03  1.1865528153621227e-03  1.1823455127418431e-03  1.1649297899604483e-03  1.1761315224319603e-03  1.1877973585360030e-03  1.1644101318683566e-03  1.1772161287639440e-03  1.1866815578412248e-03  1.1848122976704165e-03  1.1827298549971230e-03  1.1728108971558861e-03  1.1708314685203451e-03  1.1599282923286012e-03  1.1782004696743139e-03  1.1818638514257416e-03  1.1710698800924072e-03  1.1707910425436531e-03  1.1852189579211064e-03  1.1857352402455206e-03  1.1735591676995407e-03  1.1765877502728421e-03  1.1783804584810187e-03  1.1720875280277778e-03  1.1845709227176209e-03  1.1782022043050262e-03  1.1702493969605401e-03  1.1758026516856678e-03  1.1763679585510228e-03  1.1653879591242476e-03  1.1765458372882045e-03  1.1925458605618968e-03  1.1657474327424944e-03  1.1823827547056791e-03  1.1817509935665121e-03  1.1674913283796504e-03  1.1922162504172911e-03  1.1867495883362989e-03  1.1722520164468907e-03  1.1877219480078715e-03  1.1775825934262347e-03  1.1859566604552050e-03  1.2153825677753958e-03  1.2375382589742390e-03  1.2537572384533624e-03  1.3066375354800297e-03  1.3625749524670866e-03  1.4182391420351416e-03  1.5278923579798178e-03  1.6160499073318683e-03  1.7074289529499763e-03  1.8218996690492466e-03  1.8989119640538395e-03  1.9457776112942853e-03  2.0403080705505929e-03  2.0676354819263495e-03  2.0768201236373122e-03  2.1019624852493999e-03  2.0644705290307165e-03  2.0804028255603933e-03  2.0797497757474620e-03  2.0741531748265161e-03  2.0518101279636135e-03  2.0144408915666830e-03  2.0424819407414046e-03  2.0470316658944125e-03  2.0345260926422091e-03  2.0187964899907149e-03  2.0213083652031155e-03  2.0152723454653532e-03  1.9821027613411831e-03  1.9986219717140169e-03  1.9876936708536023e-03  1.9679086803834163e-03  1.9868933476668484e-03  1.9746393512759782e-03  1.9604457784647171e-03  1.9839180260580761e-03  1.9937982294471633e-03  1.9737242961401363e-03  1.9668246855207845e-03  2.0162850356351034e-03  2.0098153019862176e-03  2.0117849328768972e-03  2.0118758386899671e-03  1.9855614283447592e-03  2.0077958128252677e-03  2.0245646880791327e-03  2.0250510569810622e-03  2.0259782997422509e-03  1.9952002289795891e-03  2.0241729582071910e-03  2.0404260036662480e-03  2.0499612276796866e-03  2.0396084138557709e-03  2.0448464013704494e-03  2.0571028099032789e-03  2.0688054086194438e-03  2.0701912661818889e-03  2.0836424912019555e-03  2.0938919512109972e-03  2.0832147891781832e-03  2.0885525295725048e-03  2.0837899737111486e-03  2.0648688303483388e-03  2.0940656391357096e-03  2.1080025260761226e-03  1.1794956404456891e-03  1.1825747764969898e-03  1.1827085643011095e-03  1.1785094569553708e-03  1.1727020230716807e-03  1.1871312552167274e-03  1.1825200894249532e-03  1.1653081014643177e-03  1.1759476852692646e-03  1.1871430674850465e-03  1.1659258403526802e-03  1.1762320100128548e-03  1.1856539027268204e-03  1.1836534151823360e-03  1.1815005296897710e-03  1.1721875987184269e-03  1.1690838847188514e-03  1.1560879266425297e-03  1.1758542440698839e-03  1.1836979528030932e-03  1.1735547989921884e-03  1.1746575827560116e-03  1.1869525818435950e-03  1.1876881235092839e-03  1.1745502833185265e-03  1.1772775683338273e-03  1.1795190241583342e-03  1.1732282726925852e-03  1.1848486385537937e-03  1.1787076811390631e-03  1.1700895826575240e-03  1.1742593845143628e-03  1.1733547833724480e-03  1.1623219046035334e-03  1.1733691628266706e-03  1.1899321356878244e-03  1.1625917358142406e-03  1.1791183724838858e-03  1.1773971054567190e-03  1.1627093335261221e-03  1.1881438295678602e-03  1.1816309181626819e-03  1.1669775996083305e-03  1.1812557108496215e-03  1.1666084341624445e-03  1.1665331855779152e-03  1.1815441758195337e-03  1.1827401239836830e-03  1.1676414922569534e-03  1.1770579450977809e-03  1.1773102631586041e-03  1.1600789463823171e-03  1.1784690217230851e-03  1.1755145238072449e-03  1.1680230452720299e-03  1.1771495840551224e-03  1.1731592928781892e-03  1.1575967972625642e-03  1.1793620534546428e-03  1.1748789570457236e-03  1.1673521252994275e-03  1.1770137547229954e-03  1.1556862357849516e-03  1.1663069216059894e-03  1.1690396934727506e-03  1.1691929420163563e-03  1.1602880830057277e-03  1.1435461596471506e-03  1.1643456213292439e-03  1.1729782173557136e-03  1.1715720994592530e-03  1.1661112219800204e-03  1.1738845745799520e-03  1.1760265409377372e-03  1.1623844231931949e-03  1.1775650829728174e-03  1.1761277063383471e-03  1.1681258719439410e-03  1.1813508011556475e-03  1.1737637689690941e-03  1.1627774482735886e-03  1.1728535446716946e-03  1.1738964538225256e-03  1.1595483209081445e-03  1.1489686707616042e-03  1.1734658216939751e-03  1.1670210575851774e-03  1.1674884569712999e-03  1.1687004823333466e-03  1.1549756884605671e-03  1.1685946177148821e-03  1.1783373520880254e-03  1.1762961487844512e-03  1.1724032935035750e-03  1.1507124576412805e-03  1.1647678585178008e-03  1.1721327560482574e-03  1.1762927948358757e-03  1.1677246254109134e-03  1.1674193141528778e-03  1.1697903499282166e-03  1.1719580855530695e-03  1.1695486087228806e-03  1.1746505502045149e-03  1.1791765657626788e-03  1.1732357105071140e-03  1.1752976047011627e-03  1.1732730319721774e-03  1.1620759493445095e-03  1.1795678392300471e-03  1.1892353050003905e-03  9.9122531800499247e-01  9.9729825067105293e-01  9.9264798726792924e-01  9.9422469753054710e-01  9.9502425856564558e-01  9.9441857167059600e-01  9.9493330007332836e-01  9.9536393219605479e-01  9.9407196164669098e-01  9.9460326149719813e-01  9.9313786354376954e-01  9.9666561878096072e-01  9.9365577667483274e-01  9.9557236410872163e-01  9.9495889253021952e-01  9.9548269968855607e-01  9.9531793736846452e-01  9.9522895708841663e-01  9.9548807139855711e-01  9.9550484370767722e-01  9.9561118861673148e-01  9.9569791554466214e-01  9.9579826614594091e-01  9.9612518374290882e-01  9.9611058459890889e-01  9.9413741677289580e-01  9.9789502547285225e-01  9.9466212949593091e-01  9.9626835737443531e-01  9.9490949440641419e-01  9.9407793594264127e-01  9.9415932239832439e-01  9.9500055549553779e-01  9.9626597050075993e-01  9.9462386420039073e-01  9.9810411391271026e-01  9.9422521678783093e-01  9.9419071931598835e-01  9.9760775114891487e-01  9.9360235770884642e-01  9.9458568500281164e-01  9.9431151479239110e-01  9.9565571702712674e-01  9.9524389814728020e-01  9.9476427117800326e-01  9.9480845238414206e-01  9.9385378328838847e-01  9.9465459911490972e-01  9.9521687392543934e-01  9.9453111190659738e-01  9.9518314030019284e-01  9.9448590197033093e-01  9.9526167767452134e-01  9.9327664229841572e-01  9.9599224449593837e-01  1.9773873836153865e-07  7.5109844118555961e-09  8.2978874414538242e-07  1.2380559180299549e-06  1.0587841948452408e-06  3.2086590864070681e-07  3.5403877361864466e-07  1.6598032489236967e-06  1.0167990968785693e-06  4.5714812344371276e-07  5.1616436965555307e-08  3.4779012760322004e-09  2.5342359168581923e-06  1.4761655004779042e-06  1.7509009171552229e-06  1.5119360125019183e-06  3.7742405914857164e-06  7.4351838543157339e-07  7.3660512993185084e-09  1.9237950704100327e-07  5.4573592912670130e