<?xml version="1.0"?>
<VTKFile type="UnstructuredGrid"  version="0.1"  >
<UnstructuredGrid>
<Piece  NumberOfPoints="15540" NumberOfCells="30546">
<Points>
<DataArray  type="Float64"  NumberOfComponents="3"  format="ascii">0 0 0  -0.5 -0.5 0  0.5 -0.5 0  0.5 0 0  0.5 0.5 0  -0.5 0.5 0  -0.5 0.0001 0  -0.5 -0.0001 0  0.5 0.1 0  0.5 -0.1 0  -0.5 -0.1 0  -0.5 0.1 0  -0.4900000000000277 -0.5 0  -0.4800000000000555 -0.5 0  -0.4700000000000832 -0.5 0  -0.4600000000001109 -0.5 0  -0.4500000000001387 -0.5 0  -0.4400000000001664 -0.5 0  -0.4300000000001942 -0.5 0  -0.4200000000002219 -0.5 0  -0.4100000000002497 -0.5 0  -0.4000000000002774 -0.5 0  -0.3900000000003052 -0.5 0  -0.3800000000003328 -0.5 0  -0.3700000000003606 -0.5 0  -0.3600000000003883 -0.5 0  -0.3500000000004161 -0.5 0  -0.3400000000004438 -0.5 0  -0.3300000000004716 -0.5 0  -0.3200000000004993 -0.5 0  -0.3100000000005271 -0.5 0  -0.3000000000005548 -0.5 0  -0.2900000000005825 -0.5 0  -0.2800000000006103 -0.5 0  -0.2700000000006381 -0.5 0  -0.2600000000006658 -0.5 0  -0.2500000000006935 -0.5 0  -0.2400000000007212 -0.5 0  -0.230000000000749 -0.5 0  -0.2200000000007767 -0.5 0  -0.2100000000008044 -0.5 0  -0.2000000000008322 -0.5 0  -0.19000000000086 -0.5 0  -0.1800000000008877 -0.5 0  -0.1700000000009154 -0.5 0  -0.1600000000009431 -0.5 0  -0.1500000000009709 -0.5 0  -0.1400000000009986 -0.5 0  -0.1300000000010264 -0.5 0  -0.1200000000010541 -0.5 0  -0.1100000000010818 -0.5 0  -0.1000000000011096 -0.5 0  -0.09000000000113734 -0.5 0  -0.08000000000116503 -0.5 0  -0.07000000000119283 -0.5 0  -0.06000000000122058 -0.5 0  -0.05000000000124827 -0.5 0  -0.04000000000127607 -0.5 0  -0.03000000000130376 -0.5 0  -0.02000000000133151 -0.5 0  -0.01000000000135925 -0.5 0  -1.376121439022882e-12 -0.5 0  0.009999999998640763 -0.5 0  0.01999999999866864 -0.5 0  0.02999999999869629 -0.5 0  0.03999999999872406 -0.5 0  0.04999999999875182 -0.5 0  0.05999999999877947 -0.5 0  0.06999999999880724 -0.5 0  0.079999999998835 -0.5 0  0.08999999999886266 -0.5 0  0.09999999999889042 -0.5 0  0.1099999999989182 -0.5 0  0.1199999999989459 -0.5 0  0.1299999999989737 -0.5 0  0.1399999999990014 -0.5 0  0.1499999999990291 -0.5 0  0.1599999999990568 -0.5 0  0.1699999999990847 -0.5 0  0.1799999999991124 -0.5 0  0.1899999999991401 -0.5 0  0.1999999999991678 -0.5 0  0.2099999999991955 -0.5 0  0.2199999999992234 -0.5 0  0.2299999999992511 -0.5 0  0.2399999999992788 -0.5 0  0.2499999999993066 -0.5 0  0.2599999999993342 -0.5 0  0.269999999999362 -0.5 0  0.2799999999993897 -0.5 0  0.2899999999994175 -0.5 0  0.2999999999994452 -0.5 0  0.3099999999994729 -0.5 0  0.3199999999995007 -0.5 0  0.3299999999995284 -0.5 0  0.3399999999995562 -0.5 0  0.3499999999995839 -0.5 0  0.3599999999996116 -0.5 0  0.3699999999996393 -0.5 0  0.379999999999667 -0.5 0  0.3899999999996949 -0.5 0  0.3999999999997226 -0.5 0  0.4099999999997503 -0.5 0  0.419999999999778 -0.5 0  0.4299999999998058 -0.5 0  0.4399999999998336 -0.5 0  0.4499999999998613 -0.5 0  0.4599999999998891 -0.5 0  0.4699999999999167 -0.5 0  0.4799999999999445 -0.5 0  0.4899999999999722 -0.5 0  0.5 -0.4902110204681464 0  0.5 -0.4804459958734807 0  0.5 -0.4707048677450883 0  0.5 -0.4609875815766065 0  0.5 -0.4512940759251849 0  0.5 -0.4416242912883993 0  0.5 -0.4319781678689807 0  0.5 -0.4223556545383647 0  0.5 -0.4127566896324213 0  0.5 -0.4031812128200121 0  0.5 -0.3936291733057916 0  0.5 -0.3841005081172659 0  0.5 -0.3745951585781932 0  0.5 -0.3651130778999337 0  0.5 -0.3556541993788045 0  0.5 -0.3462184677228392 0  0.5 -0.3368058273705318 0  0.5 -0.3274162224888609 0  0.5 -0.3180495969712945 0  0.5 -0.3087058944357755 0  0.5 -0.299385058222682 0  0.5 -0.2900870313927414 0  0.5 -0.2808117567250807 0  0.5 -0.2715591844628491 0  0.5 -0.2623292564012653 0  0.5 -0.253121909553727 0  0.5 -0.2439371050851549 0  0.5 -0.2347747685524501 0  0.5 -0.2256348634421331 0  0.5 -0.2165173209784076 0  0.5 -0.207422087829958 0  0.5 -0.1983491207029381 0  0.5 -0.1892983550950482 0  0.5 -0.1802697378305253 0  0.5 -0.1712632154965152 0  0.5 -0.1622787344187354 0  0.5 -0.1533162406595534 0  0.5 -0.1443756800160514 0  0.5 -0.1354569980180493 0  0.5 -0.1265601399261414 0  0.5 -0.1176850622761093 0  0.5 -0.1088317009011999 0  0.5 -0.09166666666668973 0  0.5 -0.08333333333337943 0  0.5 -0.07500000000006915 0  0.5 -0.06666666666675886 0  0.5 -0.05833333333344858 0  0.5 -0.05000000000013693 0  0.5 -0.04166666666678191 0  0.5 -0.03333333333342643 0  0.5 -0.02500000000006916 0  0.5 -0.01666666666671188 0  0.5 -0.00833333333335548 0  0.5 0.008333333333318314 0  0.5 0.01666666666663358 0  0.5 0.02499999999994162 0  0.5 0.03333333333325101 0  0.5 0.04166666666655769 0  0.5 0.04999999999986843 0  0.5 0.05833333333322258 0  0.5 0.06666666666657715 0  0.5 0.07499999999993352 0  0.5 0.08333333333328992 0  0.5 0.09166666666664541 0  0.5 0.1088317009011616 0  0.5 0.1176850622760307 0  0.5 0.1265601399260203 0  0.5 0.1354569980178909 0  0.5 0.1443756800158549 0  0.5 0.153316240659315 0  0.5 0.1622787344184454 0  0.5 0.1712632154961752 0  0.5 0.1802697378301332 0  0.5 0.1892983550946039 0  0.5 0.1983491207024433 0  0.5 0.2074220878294123 0  0.5 0.216517320977811 0  0.5 0.2256348634414833 0  0.5 0.2347747685517479 0  0.5 0.2439371050844009 0  0.5 0.2531219095529224 0  0.5 0.2623292564004089 0  0.5 0.2715591844619371 0  0.5 0.2808117567241139 0  0.5 0.290087031391723 0  0.5 0.2993850582216101 0  0.5 0.3087058944347426 0  0.5 0.3180495969703129 0  0.5 0.3274162224879299 0  0.5 0.3368058273696494 0  0.5 0.3462184677220051 0  0.5 0.3556541993780186 0  0.5 0.3651130778991989 0  0.5 0.3745951585775107 0  0.5 0.3841005081166359 0  0.5 0.3936291733052134 0  0.5 0.4031812128194852 0  0.5 0.412756689631945 0  0.5 0.4223556545379392 0  0.5 0.431978167868607 0  0.5 0.4416242912880781 0  0.5 0.4512940759249164 0  0.5 0.4609875815763912 0  0.5 0.4707048677449264 0  0.5 0.4804459958733726 0  0.5 0.4902110204680924 0  0.4900000000000277 0.5 0  0.4800000000000555 0.5 0  0.4700000000000832 0.5 0  0.4600000000001109 0.5 0  0.4500000000001387 0.5 0  0.4400000000001664 0.5 0  0.4300000000001942 0.5 0  0.4200000000002219 0.5 0  0.4100000000002497 0.5 0  0.4000000000002774 0.5 0  0.3900000000003052 0.5 0  0.3800000000003328 0.5 0  0.3700000000003606 0.5 0  0.3600000000003883 0.5 0  0.3500000000004161 0.5 0  0.3400000000004438 0.5 0  0.3300000000004716 0.5 0  0.3200000000004993 0.5 0  0.3100000000005271 0.5 0  0.3000000000005548 0.5 0  0.2900000000005825 0.5 0  0.2800000000006103 0.5 0  0.2700000000006381 0.5 0  0.2600000000006658 0.5 0  0.2500000000006935 0.5 0  0.2400000000007212 0.5 0  0.230000000000749 0.5 0  0.2200000000007767 0.5 0  0.2100000000008044 0.5 0  0.2000000000008322 0.5 0  0.19000000000086 0.5 0  0.1800000000008877 0.5 0  0.1700000000009154 0.5 0  0.1600000000009431 0.5 0  0.1500000000009709 0.5 0  0.1400000000009986 0.5 0  0.1300000000010264 0.5 0  0.1200000000010541 0.5 0  0.1100000000010818 0.5 0  0.1000000000011096 0.5 0  0.09000000000113734 0.5 0  0.08000000000116503 0.5 0  0.07000000000119283 0.5 0  0.06000000000122058 0.5 0  0.05000000000124827 0.5 0  0.04000000000127607 0.5 0  0.03000000000130376 0.5 0  0.02000000000133151 0.5 0  0.01000000000135925 0.5 0  1.376121439022882e-12 0.5 0  -0.009999999998640763 0.5 0  -0.01999999999866864 0.5 0  -0.02999999999869629 0.5 0  -0.03999999999872406 0.5 0  -0.04999999999875182 0.5 0  -0.05999999999877947 0.5 0  -0.06999999999880724 0.5 0  -0.079999999998835 0.5 0  -0.08999999999886266 0.5 0  -0.09999999999889042 0.5 0  -0.1099999999989182 0.5 0  -0.1199999999989459 0.5 0  -0.1299999999989737 0.5 0  -0.1399999999990014 0.5 0  -0.1499999999990291 0.5 0  -0.1599999999990568 0.5 0  -0.1699999999990847 0.5 0  -0.1799999999991124 0.5 0  -0.1899999999991401 0.5 0  -0.1999999999991678 0.5 0  -0.2099999999991955 0.5 0  -0.2199999999992234 0.5 0  -0.2299999999992511 0.5 0  -0.2399999999992788 0.5 0  -0.2499999999993066 0.5 0  -0.2599999999993342 0.5 0  -0.269999999999362 0.5 0  -0.2799999999993897 0.5 0  -0.2899999999994175 0.5 0  -0.2999999999994452 0.5 0  -0.3099999999994729 0.5 0  -0.3199999999995007 0.5 0  -0.3299999999995284 0.5 0  -0.3399999999995562 0.5 0  -0.3499999999995839 0.5 0  -0.3599999999996116 0.5 0  -0.3699999999996393 0.5 0  -0.379999999999667 0.5 0  -0.3899999999996949 0.5 0  -0.3999999999997226 0.5 0  -0.4099999999997503 0.5 0  -0.419999999999778 0.5 0  -0.4299999999998058 0.5 0  -0.4399999999998336 0.5 0  -0.4499999999998613 0.5 0  -0.4599999999998891 0.5 0  -0.4699999999999167 0.5 0  -0.4799999999999445 0.5 0  -0.4899999999999722 0.5 0  -0.5 0.4902110204681464 0  -0.5 0.4804459958734807 0  -0.5 0.4707048677450883 0  -0.5 0.4609875815766065 0  -0.5 0.4512940759251849 0  -0.5 0.4416242912883993 0  -0.5 0.4319781678689807 0  -0.5 0.4223556545383647 0  -0.5 0.4127566896324213 0  -0.5 0.4031812128200121 0  -0.5 0.3936291733057916 0  -0.5 0.3841005081172659 0  -0.5 0.3745951585781932 0  -0.5 0.3651130778999337 0  -0.5 0.3556541993788045 0  -0.5 0.3462184677228392 0  -0.5 0.3368058273705318 0  -0.5 0.3274162224888609 0  -0.5 0.3180495969712945 0  -0.5 0.3087058944357755 0  -0.5 0.299385058222682 0  -0.5 0.2900870313927414 0  -0.5 0.2808117567250807 0  -0.5 0.2715591844628491 0  -0.5 0.2623292564012653 0  -0.5 0.253121909553727 0  -0.5 0.2439371050851549 0  -0.5 0.2347747685524501 0  -0.5 0.2256348634421331 0  -0.5 0.2165173209784076 0  -0.5 0.207422087829958 0  -0.5 0.1983491207029381 0  -0.5 0.1892983550950482 0  -0.5 0.1802697378305253 0  -0.5 0.1712632154965152 0  -0.5 0.1622787344187354 0  -0.5 0.1533162406595534 0  -0.5 0.1443756800160514 0  -0.5 0.1354569980180493 0  -0.5 0.1265601399261414 0  -0.5 0.1176850622761093 0  -0.5 0.1088317009011999 0  -0.5 0.09167500000001694 0  -0.5 0.08335000000003931 0  -0.5 0.07502500000006167 0  -0.5 0.06670000000008947 0  -0.5 0.05837500000011001 0  -0.5 0.0500500000001328 0  -0.5 0.0417250000001127 0  -0.5 0.03340000000008944 0  -0.5 0.02507500000006573 0  -0.5 0.01675000000004653 0  -0.5 0.008425000000027341 
[...]
<PointData  Scalars="f_25"> 
<DataArray  type="Float64"  Name="f_25"  format="ascii">1.0000000000000000e+00  1.2210322357986034e-09  1.9275124424147977e-06  9.9547754105249597e-01  8.4423710266651637e-07  1.1920908092840567e-08  1.0000000000000000e+00  1.0000000000000000e+00  2.0840257048518693e-03  1.1729586773727796e-03  1.1821038490905319e-03  1.1815696002277320e-03  1.3543627514407914e-09  1.6840871585378436e-09  2.1198371356404898e-09  2.5976036377409415e-09  3.0546153395546975e-09  3.4972744697448687e-09  3.9239238746207297e-09  4.3671145529988569e-09  4.7945329863153573e-09  5.2360822306500603e-09  5.6957411280583969e-09  6.2130648987120549e-09  6.7613473214217875e-09  7.3589502076244568e-09  8.0237958112284216e-09  8.7725090004728223e-09  9.6475576011670519e-09  1.0593165293515098e-08  1.1654450607190725e-08  1.2853160434956759e-08  1.4132443630277235e-08  1.5542333094487020e-08  1.7132104963037068e-08  1.8798453727988786e-08  2.0638937467146562e-08  2.2632877663050207e-08  2.4784531161027537e-08  2.7157066606396168e-08  2.9628114374228661e-08  3.2353932774024270e-08  3.5223865723988658e-08  3.8295133795444292e-08  4.1557345789989752e-08  4.5056458697243472e-08  4.8755246345987999e-08  5.2639283813511830e-08  5.6744604055389419e-08  6.1084839149272198e-08  6.5632992166567984e-08  7.0356237434645743e-08  7.5329061133647726e-08  8.0533487102191180e-08  8.5876017797726831e-08  9.1486788556911367e-08  9.7249262796919974e-08  1.0329341807335072e-07  1.0943722443765255e-07  1.1577369038662794e-07  1.2234625326031892e-07  1.2904205613613647e-07  1.3591167553662244e-07  1.4294210526804529e-07  1.5020041340940991e-07  1.5760833175597413e-07  1.6502654417425006e-07  1.7261631010515745e-07  1.8037129201278985e-07  1.8829416988101391e-07  1.9632107275552779e-07  2.0442012627197310e-07  2.1280652146941729e-07  2.2135690303597506e-07  2.2985832357380847e-07  2.3858761415465868e-07  2.4752623362244416e-07  2.5648516406157275e-07  2.6578689533164973e-07  2.7514725003658505e-07  2.8472062527628607e-07  2.9459581363645591e-07  3.0473754285037443e-07  3.1517587145451433e-07  3.2589148727591628e-07  3.3679283910970746e-07  3.4813601081508411e-07  3.5998589948397560e-07  3.7219762527487985e-07  3.8502894868761923e-07  3.9864519570607182e-07  4.1279190653687035e-07  4.2799485703804178e-07  4.4389620207576396e-07  4.6080641410416649e-07  4.7908559368993781e-07  4.9907905882310275e-07  5.2065380653165059e-07  5.4441789073959891e-07  5.7132171874555262e-07  6.0112390540797993e-07  6.3552684542467486e-07  6.7513510439266856e-07  7.2331535219714440e-07  7.8013158450706321e-07  8.5175695735879974e-07  9.4356510016713176e-07  1.0643301702751653e-06  1.2227176563860972e-06  1.4304533672684669e-06  1.6988150715584267e-06  1.7859203061152383e-06  1.5346233683187391e-06  1.3384681986647885e-06  1.1852591031463587e-06  1.0755759373511068e-06  9.9483380001508099e-07  9.3542288033037913e-07  8.8979877345225411e-07  8.5416509112438034e-07  8.2640514609073742e-07  8.0386521605222273e-07  7.8603519879996890e-07  7.7142607119419613e-07  7.5993193882751841e-07  7.5033851779925235e-07  7.4247946194890890e-07  7.3630404010633333e-07  7.3130389421187887e-07  7.2729222302496266e-07  7.2448948532691087e-07  7.2267973869825559e-07  7.2233366862772214e-07  7.2388017787114888e-07  7.2841799320925211e-07  7.3802843890092245e-07  7.5641762265795989e-07  7.9101139136852747e-07  8.5171392663148545e-07  9.6680485868434317e-07  1.1785894372760363e-06  1.5625540741131648e-06  2.2884738929197668e-06  3.5933412035766846e-06  5.9973356139582362e-06  1.0276761471702890e-05  1.8415053030591253e-05  3.3249428771884717e-05  6.0504536727539551e-05  1.0951080159366421e-04  1.9693873932474042e-04  3.5924358022632096e-04  6.5188252988196741e-04  2.0755789599423303e-03  3.6561088012378746e-03  6.4477462697001883e-03  1.1195507262876388e-02  1.9608079145955182e-02  3.4420724175103577e-02  6.0213785774793346e-02  1.0533489412040199e-01  1.8371796193826997e-01  3.2612972330313533e-01  5.7260698514750141e-01  9.8712117354721518e-01  5.7503153153925790e-01  3.3144297425330183e-01  1.8555347993166316e-01  1.0574440819540940e-01  6.0470325319296470e-02  3.4482861861530753e-02  1.9690869023892894e-02  1.1186695043716735e-02  6.4744071080544445e-03  3.6864791901163162e-03  1.1576647925990312e-03  6.3776040003399770e-04  3.4948240950671898e-04  1.9413642433500675e-04  1.0703898987935768e-04  5.8592203429136733e-05  3.2227338916834215e-05  1.7757321735204874e-05  1.0159890478974562e-05  5.8980243548984582e-06  3.5826762218140025e-06  2.2998104672035310e-06  1.6223093213387767e-06  1.2497757502535824e-06  1.0485457255456548e-06  9.4295348232200480e-07  8.8341414857039861e-07  8.5201857370931141e-07  8.3556735275714723e-07  8.2733753378532511e-07  8.2352694167023794e-07  8.2250946845739472e-07  8.2225986251559831e-07  8.2339247848508619e-07  8.2446494888633953e-07  8.2593615731572293e-07  8.2793888172895005e-07  8.2922141229670325e-07  8.3080701078011085e-07  8.3253575683961365e-07  8.3417551828213811e-07  8.3562722084822509e-07  8.3692524149553181e-07  8.3828670330826698e-07  8.3951873963327314e-07  8.4062846724250752e-07  8.4149639942162873e-07  8.4240169013941989e-07  8.4302802099937205e-07  8.4397471466196520e-07  8.4377348510754315e-07  8.4416471101220172e-07  8.3855424718133117e-07  8.2659911343835756e-07  8.1149617183157212e-07  7.9495188030808616e-07  7.7773145114709387e-07  7.6052138637815768e-07  7.4365327388306433e-07  7.2722892455990677e-07  7.1093676665207583e-07  6.9510819860708250e-07  6.7970947355522383e-07  6.6477613007180192e-07  6.4997774931346761e-07  6.3571990961105721e-07  6.2175063660434953e-07  6.0799038015894487e-07  5.9457075668526786e-07  5.8140857563730985e-07  5.6853595803633775e-07  5.5568762060911295e-07  5.4317874558580558e-07  5.3071177893260277e-07  5.1848122358813432e-07  5.0614663117859316e-07  4.9402669837803337e-07  4.8204303917688066e-07  4.6991391508943156e-07  4.5787514190804550e-07  4.4555609442327485e-07  4.3342505315214807e-07  4.2118002017544724e-07  4.0888702232418360e-07  3.9641116661939987e-07  3.8385804425714745e-07  3.7123986680657111e-07  3.5855084095289642e-07  3.4577763074946438e-07  3.3292506558678789e-07  3.1994543284267555e-07  3.0671347616337755e-07  2.9362626331777374e-07  2.8050751678162560e-07  2.6743225791657630e-07  2.5445523980352489e-07  2.4139223726648290e-07  2.2861263733732218e-07  2.1573624872258964e-07  2.0306475990011012e-07  1.9068706860032489e-07  1.7860827541860307e-07  1.6684208187519114e-07  1.5519385696479188e-07  1.4413822677068785e-07  1.3332796133687930e-07  1.2288326824169441e-07  1.1300641216048095e-07  1.0343876259093497e-07  9.4370468619596032e-08  8.5812508036028048e-08  7.7680510985413688e-08  7.0124189267522847e-08  6.2966892922327019e-08  5.6341809560461953e-08  5.0166775840238432e-08  4.4468847573594804e-08  3.9202516114003820e-08  3.4325799719268878e-08  2.9952002139535268e-08  2.5905013940727315e-08  2.2270148047950063e-08  1.8978214097725435e-08  1.6045366675151155e-08  1.3403087130010883e-08  1.1090654152333731e-08  9.0246768087459966e-09  7.2302711020409081e-09  5.7008445405267531e-09  4.3733379338121613e-09  3.2721230144059246e-09  2.3582761078553735e-09  1.6347432888026770e-09  1.0921165150942490e-09  7.1516495643853304e-10  5.0336356690513144e-10  4.4023486578549929e-10  5.1675598105934815e-10  7.2441323437611786e-10  1.0500165105639283e-09  1.4867687822322556e-09  2.0221186935632503e-09  2.6707688780082465e-09  3.4289660706218496e-09  4.3152153675142401e-09  5.3084040442363958e-09  6.4449623745655043e-09  7.6772851753371698e-09  9.0122822534271827e-09  1.0311110077199656e-08  1.1382518950213654e-08  1.1922371220050669e-08  1.1883502640595345e-08  1.1860922634502399e-08  1.1727216847783767e-08  1.1624122546767182e-08  1.1491231978158008e-08  1.1322824849793120e-08  1.1150584147863056e-08  1.0929814464076494e-08  1.0712907517101746e-08  1.0472317062042268e-08  1.0211956653699199e-08  9.9255818498994617e-09  9.6242184277979297e-09  9.3171708601271101e-09  9.0090345836902442e-09  8.7162326992232193e-09  8.4590577165916831e-09  8.2897399005024079e-09  8.3195512090909187e-09  8.7106669931946469e-09  9.7735865366425122e-09  1.2131030381540685e-08  1.6919691450327041e-08  2.6141450603939855e-08  4.3625198016059300e-08  7.6234300706246168e-08  1.3761903029487942e-07  2.5186490537431607e-07  4.6285573622285330e-07  8.5227592761732111e-07  1.5597671006981734e-06  2.8722120607337100e-06  5.2959443400511734e-06  9.6250728017137594e-06  1.7806835426661178e-05  3.2580166288132566e-05  5.9489413479078720e-05  1.0813353952831816e-04  1.9581898575108737e-04  3.5979677131235232e-04  6.5481769427719468e-04  2.0961164245160173e-03  3.6840474173444899e-03  6.4858480434225067e-03  1.1256664928806436e-02  1.9737252540564583e-02  3.4720941305994076e-02  6.0782049332465553e-02  1.0622165161666124e-01  1.8493003603067129e-01  3.2702515526022186e-01  5.7160142369572897e-01  1.0000000000000000e+00  1.0000000000000000e+00  1.0000000000000000e+00  1.0000000000000000e+00  1.0000000000000000e+00  1.0000000000000000e+00  1.0000000000000000e+00  1.0000000000000000e+00  1.0000000000000000e+00  1.0000000000000000e+00  1.0000000000000000e+00  1.0000000000000000e+00  1.0000000000000000e+00  1.0000000000000000e+00  1.0000000000000000e+00  1.0000000000000000e+00  1.0000000000000000e+00  1.0000000000000000e+00  1.0000000000000000e+00  1.0000000000000000e+00  1.0000000000000000e+00  1.0000000000000000e+00  1.0000000000000000e+00  1.0000000000000000e+00  1.0000000000000000e+00  1.0000000000000000e+00  1.0000000000000000e+00  1.0000000000000000e+00  1.0000000000000000e+00  1.0000000000000000e+00  1.0000000000000000e+00  1.0000000000000000e+00  1.0000000000000000e+00  1.0000000000000000e+00  1.0000000000000000e+00  1.0000000000000000e+00  1.0000000000000000e+00  1.0000000000000000e+00  1.0000000000000000e+00  1.0000000000000000e+00  1.0000000000000000e+00  1.0000000000000000e+00  1.0000000000000000e+00  1.0000000000000000e+00  9.9999999999999989e-01  1.0000000000000000e+00  1.0000000000000000e+00  1.0000000000000000e+00  1.0000000000000000e+00  1.0000000000000000e+00  1.0000000000000000e+00  1.0000000000000000e+00  1.0000000000000000e+00  1.0000000000000000e+00  1.0000000000000000e+00  1.0000000000000000e+00  1.0000000000000000e+00  1.0000000000000000e+00  1.0000000000000000e+00  1.0000000000000000e+00  1.0000000000000000e+00  1.0000000000000000e+00  1.0000000000000000e+00  1.0000000000000000e+00  1.0000000000000000e+00  1.0000000000000000e+00  1.0000000000000000e+00  1.0000000000000000e+00  1.0000000000000000e+00  1.0000000000000000e+00  1.0000000000000000e+00  1.0000000000000000e+00  1.0000000000000000e+00  1.0000000000000000e+00  1.0000000000000000e+00  1.0000000000000000e+00  9.9999999999999989e-01  1.0000000000000000e+00  1.0000000000000000e+00  1.0000000000000000e+00  1.0000000000000000e+00  1.0000000000000000e+00  1.0000000000000000e+00  1.0000000000000000e+00  1.0000000000000000e+00  1.0000000000000000e+00  1.0000000000000000e+00  1.0000000000000000e+00  1.0000000000000000e+00  1.0000000000000000e+00  1.0000000000000000e+00  1.0000000000000000e+00  1.0000000000000000e+00  1.0000000000000000e+00  1.0000000000000000e+00  9.9999999999999989e-01  1.0000000000000000e+00  1.0000000000000000e+00  1.0000000000000000e+00  1.0000000000000000e+00  1.0000000000000000e+00  1.0000000000000000e+00  1.0000000000000000e+00  1.0000000000000000e+00  1.0000000000000000e+00  1.0000000000000000e+00  1.0000000000000000e+00  1.0000000000000000e+00  1.0000000000000000e+00  1.0000000000000000e+00  5.7157081540371757e-01  3.2704024577807278e-01  1.8489315724740202e-01  1.0623927487517824e-01  6.0789268489855511e-02  3.4726290615128261e-02  1.9744685345920481e-02  1.1258434678992487e-02  6.4895802398689676e-03  3.6859953828606139e-03  2.0973559386221014e-03  6.5513200636465360e-04  3.5991674136764430e-04  1.9537129454005254e-04  1.0819450647159652e-04  5.9556649124845466e-05  3.2618305674080962e-05  1.7822252840096566e-05  9.6350551386780524e-06  5.2989809243313164e-06  2.8732441539997727e-06  1.5605242941035485e-06  8.5288369627956265e-07  4.6334060225198487e-07  2.5204031191749258e-07  1.3759613281226138e-07  7.6050811814662339e-08  4.3283362480389701e-08  2.5639523974512528e-08  1.6221486654724254e-08  1.1214704916720106e-08  8.6123318397910894e-09  7.2712374902702564e-09  6.5690560919030008e-09  6.1896365762720440e-09  5.9718592262105191e-09  5.8126594362189645e-09  5.6623168763996758e-09  5.4853233113678890e-09  5.2743587215820463e-09  5.0360929883541393e-09  4.7519639680398184e-09  4.4308106268498336e-09  4.0767915713287905e-09  3.6902124737866168e-09  3.2938811739789673e-09  2.9072832534471111e-09  2.5124519724505460e-09  2.1248328281954426e-09  1.7810505617266529e-09  1.4814854414273555e-09  1.3343675351282241e-09  1.2382816988560317e-09  1.1789203619124423e-03  1.1823894719134177e-03  1.1825376530927908e-03  1.1783919999630039e-03  1.1725497727862607e-03  1.1865517214583576e-03  1.1823441905924855e-03  1.1649282244397814e-03  1.1761296928237560e-03  1.1877952576609353e-03  1.1644077540451522e-03  1.1772134669663303e-03  1.1866786172664216e-03  1.1848090854047844e-03  1.1827263811950413e-03  1.1728071766686683e-03  1.1708275193165396e-03  1.1599241359325789e-03  1.1781961260894673e-03  1.1818593546821271e-03  1.1710652572583166e-03  1.1707863267904838e-03  1.1852141880597735e-03  1.1857304602336956e-03  1.1735544048902371e-03  1.1765830532484533e-03  1.1783758697662813e-03  1.1720830692034266e-03  1.1845666372572146e-03  1.1781981169491974e-03  1.1702455180136974e-03  1.1757989986395058e-03  1.1763645132094273e-03  1.1653847219839967e-03  1.1765427991790409e-03  1.1925429990471913e-03  1.1657448844297777e-03  1.1823807922712354e-03  1.1817500926470546e-03  1.1674928775538952e-03  1.1922226415899823e-03  1.1867649412059048e-03  1.1722839133031654e-03  1.1877844091112784e-03  1.1776936662668055e-03  1.1861529774332268e-03  1.2157113421135514e-03  1.2380597860510638e-03  1.2545630965293817e-03  1.3078404819994705e-03  1.3642581315825779e-03  1.4205102791512321e-03  1.5308938712272678e-03  1.6196740669561841e-03  1.7116396336062083e-03  1.8266541578657103e-03  1.9039271683237522e-03  1.9508102861788476e-03  2.0453694920104736e-03  2.0724637435003525e-03  2.0813120446377706e-03  2.1062076219510841e-03  2.0683789373692331e-03  2.0841778566352866e-03  2.0834336088939344e-03  2.0777913747407010e-03  2.0553900136990786e-03  2.0179162617917634e-03  2.0459619370165392e-03  2.0504235183931357e-03  2.0377861692632950e-03  2.0219014101175940e-03  2.0243065306828479e-03  2.0181878288253814e-03  1.9849239221580418e-03  2.0014745855582551e-03  1.9905761045482346e-03  1.9708538982922200e-03  1.9900090315049844e-03  1.9778694970484663e-03  1.9637853931889783e-03  1.9874070226640738e-03  1.9973388968312395e-03  1.9771905318031659e-03  1.9702065273689891e-03  2.0196906994162794e-03  2.0131531057251796e-03  2.0151186280501512e-03  2.0152543678542672e-03  1.9889738116403866e-03  2.0113564241545203e-03  2.0282510726965328e-03  2.0287695853966376e-03  2.0296609926166382e-03  1.9987094182796808e-03  2.0275946498651944e-03  2.0437002178682563e-03  2.0530855822373977e-03  2.0425769668231228e-03  2.0477420414360703e-03  2.0599847383624831e-03  2.0717178553126105e-03  2.0731494276698226e-03  2.0867010996762450e-03  2.0970824807337567e-03  2.0865229690233350e-03  2.0920571328550139e-03  2.0874716480337972e-03  2.0686824343138697e-03  2.0981104393927087e-03  2.1121707568149254e-03  1.1794952254623487e-03  1.1825742773823465e-03  1.1827079411855053e-03  1.1785086764022489e-03  1.1727010577305636e-03  1.1871300810862974e-03  1.1825186852766878e-03  1.1653064547069601e-03  1.1759457784920573e-03  1.1871408968640749e-03  1.1659234030009372e-03  1.1762293015647278e-03  1.1856509304803775e-03  1.1836501883326729e-03  1.1814970587881238e-03  1.1721838974220967e-03  1.1690799700657796e-03  1.1560838189254464e-03  1.1758499605569069e-03  1.1836935247033342e-03  1.1735502497619706e-03  1.1746529419805404e-03  1.1869478880001296e-03  1.1876834144658505e-03  1.1745455824782832e-03  1.1772729229632315e-03  1.1795144763319181e-03  1.1732238437845151e-03  1.1848443742276831e-03  1.1787036065507973e-03  1.1700857094865879e-03  1.1742557319610533e-03  1.1733513202206241e-03  1.1623186014891040e-03  1.1733659325785831e-03  1.1899287937239939e-03  1.1625881369959140e-03  1.1791141679295765e-03  1.1773918207717672e-03  1.1627024291780556e-03  1.1881344632218300e-03  1.1816180455401862e-03  1.1669599977398451e-03  1.1812320455871883e-03  1.1665768945196809e-03  1.1664925970266433e-03  1.1814934584702718e-03  1.1826788482313733e-03  1.1675717420831734e-03  1.1769847656360256e-03  1.1772392351826755e-03  1.1600230580079941e-03  1.1784509699908218e-03  1.1755414533601795e-03  1.1681186461741796e-03  1.1773420682402599e-03  1.1734385767623295e-03  1.1579659083094231e-03  1.1798501982259848e-03  1.1754437029106684e-03  1.1679817908471636e-03  1.1777068183695372e-03  1.1563924334303801e-03  1.1670510403339791e-03  1.1698011083505640e-03  1.1699594741076107e-03  1.1610414072659421e-03  1.1442726517548597e-03  1.1650895186242443e-03  1.1737220295219271e-03  1.1723057355615550e-03  1.1668281358994516e-03  1.1745994465566004e-03  1.1767334971139552e-03  1.1630640163460314e-03  1.1782477449518043e-03  1.1767948292856357e-03  1.1687695612594914e-03  1.1819934871545848e-03  1.1743867553480408e-03  1.1633804605977933e-03  1.1734629944211907e-03  1.1745072836432733e-03  1.1601501764889150e-03  1.1495665379588592e-03  1.1740978012104027e-03  1.1676499839520082e-03  1.1681170990033103e-03  1.1693249171300095e-03  1.1555766173213715e-03  1.1692038808595923e-03  1.1789551465575146e-03  1.1769165399138320e-03  1.1730325554222298e-03  1.1513371184974979e-03  1.1654327655694430e-03  1.1728325737879841e-03  1.1770227789970947e-03  1.1684669636302398e-03  1.1681782974522622e-03  1.1705631730427424e-03  1.1727381258985179e-03  1.1703207895815868e-03  1.1754144764196985e-03  1.1799199897356415e-03  1.1739326213757468e-03  1.1759441815512024e-03  1.1738526030477231e-03  1.1625686973671921e-03  1.1800087866797105e-03  1.1896292508180490e-03  9.9313650422948740e-01  9.9804728010305110e-01  9.9426524207297340e-01  9.9562446491601697e-01  9.9626932283892100e-01  9.9572381165511026e-01  9.9613529529753075e-01  9.9648113772896230e-01  9.9548240649309216e-01  9.9593312158550396e-01  9.9467634370389602e-01  9.9750723235598526e-01  9.9508728017652770e-01  9.9665260393276789e-01  9.9614121411562551e-01  9.9660553133403229e-01  9.9641878258730476e-01  9.9634874681239471e-01  9.9660847887831683e-01  9.9656573394331827e-01  9.9665183275486635e-01  9.9675980154239530e-01  9.9678193023575756e-01  9.9704986941602425e-01  9.9706814323493276e-01  9.9544571712181440e-01  9.9848618294052172e-01  9.9587107015819076e-01  9.9716770583154335e-01  9.9612786504862716e-01  9.9550854050130311e-01  9.9557307980685394e-01  9.9619771687390957e-01  9.9716461613958285e-01  9.9584760991973287e-01  9.9864163429695973e-01  9.9552448766331336e-01  9.9554931913544853e-01  9.9827025604323016e-01  9.9505365795007306e-01  9.9589859688882665e-01  9.9566436966620098e-01  9.9671732373255062e-01  9.9637658693622067e-01  9.9599676509969515e-01  9.9610477315999235e-01  9.9530773138394812e-01  9.9593515007075128e-01  9.9636838131548078e-01  9.9581508457071011e-01  9.9639031621405483e-01  9.9578578049568045e-01  9.9641827627859625e-01  9.9480212210170815e-01  9.9694551865908587e-01  9.1179057532327140e-08  4.5274995591297159e-09  3.7670754107718473e-07  5.5842678178250860e-07  7.3380329457288793e-07  3.0735140639318663e-07  3.4984798029360021e-07  1.0595118199331275e-06  4.5766995148592234e-07  2.0728433316055299e-07  2.3644839914706525e-08  1.5433521444819109e-09  1.7918371524279022e-06  6.6330728350723755e-07  1.6489051313639380e-06  1.5088953924817128e-06  3.2311852716923881e-06  3.3571652272527156e-07  3.3953549077446590e-09  8.7605518661630308e-08  4.8099612107312344e