<?xml version="1.0"?>
<VTKFile type="UnstructuredGrid"  version="0.1"  >
<UnstructuredGrid>
<Piece  NumberOfPoints="15540" NumberOfCells="30546">
<Points>
<DataArray  type="Float64"  NumberOfComponents="3"  format="ascii">0 0 0  -0.5 -0.5 0  0.5 -0.5 0  0.5 0 0  0.5 0.5 0  -0.5 0.5 0  -0.5 0.0001 0  -0.5 -0.0001 0  0.5 0.1 0  0.5 -0.1 0  -0.5 -0.1 0  -0.5 0.1 0  -0.4900000000000277 -0.5 0  -0.4800000000000555 -0.5 0  -0.4700000000000832 -0.5 0  -0.4600000000001109 -0.5 0  -0.4500000000001387 -0.5 0  -0.4400000000001664 -0.5 0  -0.4300000000001942 -0.5 0  -0.4200000000002219 -0.5 0  -0.4100000000002497 -0.5 0  -0.4000000000002774 -0.5 0  -0.3900000000003052 -0.5 0  -0.3800000000003328 -0.5 0  -0.3700000000003606 -0.5 0  -0.3600000000003883 -0.5 0  -0.3500000000004161 -0.5 0  -0.3400000000004438 -0.5 0  -0.3300000000004716 -0.5 0  -0.3200000000004993 -0.5 0  -0.3100000000005271 -0.5 0  -0.3000000000005548 -0.5 0  -0.2900000000005825 -0.5 0  -0.2800000000006103 -0.5 0  -0.2700000000006381 -0.5 0  -0.2600000000006658 -0.5 0  -0.2500000000006935 -0.5 0  -0.2400000000007212 -0.5 0  -0.230000000000749 -0.5 0  -0.2200000000007767 -0.5 0  -0.2100000000008044 -0.5 0  -0.2000000000008322 -0.5 0  -0.19000000000086 -0.5 0  -0.1800000000008877 -0.5 0  -0.1700000000009154 -0.5 0  -0.1600000000009431 -0.5 0  -0.1500000000009709 -0.5 0  -0.1400000000009986 -0.5 0  -0.1300000000010264 -0.5 0  -0.1200000000010541 -0.5 0  -0.1100000000010818 -0.5 0  -0.1000000000011096 -0.5 0  -0.09000000000113734 -0.5 0  -0.08000000000116503 -0.5 0  -0.07000000000119283 -0.5 0  -0.06000000000122058 -0.5 0  -0.05000000000124827 -0.5 0  -0.04000000000127607 -0.5 0  -0.03000000000130376 -0.5 0  -0.02000000000133151 -0.5 0  -0.01000000000135925 -0.5 0  -1.376121439022882e-12 -0.5 0  0.009999999998640763 -0.5 0  0.01999999999866864 -0.5 0  0.02999999999869629 -0.5 0  0.03999999999872406 -0.5 0  0.04999999999875182 -0.5 0  0.05999999999877947 -0.5 0  0.06999999999880724 -0.5 0  0.079999999998835 -0.5 0  0.08999999999886266 -0.5 0  0.09999999999889042 -0.5 0  0.1099999999989182 -0.5 0  0.1199999999989459 -0.5 0  0.1299999999989737 -0.5 0  0.1399999999990014 -0.5 0  0.1499999999990291 -0.5 0  0.1599999999990568 -0.5 0  0.1699999999990847 -0.5 0  0.1799999999991124 -0.5 0  0.1899999999991401 -0.5 0  0.1999999999991678 -0.5 0  0.2099999999991955 -0.5 0  0.2199999999992234 -0.5 0  0.2299999999992511 -0.5 0  0.2399999999992788 -0.5 0  0.2499999999993066 -0.5 0  0.2599999999993342 -0.5 0  0.269999999999362 -0.5 0  0.2799999999993897 -0.5 0  0.2899999999994175 -0.5 0  0.2999999999994452 -0.5 0  0.3099999999994729 -0.5 0  0.3199999999995007 -0.5 0  0.3299999999995284 -0.5 0  0.3399999999995562 -0.5 0  0.3499999999995839 -0.5 0  0.3599999999996116 -0.5 0  0.3699999999996393 -0.5 0  0.379999999999667 -0.5 0  0.3899999999996949 -0.5 0  0.3999999999997226 -0.5 0  0.4099999999997503 -0.5 0  0.419999999999778 -0.5 0  0.4299999999998058 -0.5 0  0.4399999999998336 -0.5 0  0.4499999999998613 -0.5 0  0.4599999999998891 -0.5 0  0.4699999999999167 -0.5 0  0.4799999999999445 -0.5 0  0.4899999999999722 -0.5 0  0.5 -0.4902110204681464 0  0.5 -0.4804459958734807 0  0.5 -0.4707048677450883 0  0.5 -0.4609875815766065 0  0.5 -0.4512940759251849 0  0.5 -0.4416242912883993 0  0.5 -0.4319781678689807 0  0.5 -0.4223556545383647 0  0.5 -0.4127566896324213 0  0.5 -0.4031812128200121 0  0.5 -0.3936291733057916 0  0.5 -0.3841005081172659 0  0.5 -0.3745951585781932 0  0.5 -0.3651130778999337 0  0.5 -0.3556541993788045 0  0.5 -0.3462184677228392 0  0.5 -0.3368058273705318 0  0.5 -0.3274162224888609 0  0.5 -0.3180495969712945 0  0.5 -0.3087058944357755 0  0.5 -0.299385058222682 0  0.5 -0.2900870313927414 0  0.5 -0.2808117567250807 0  0.5 -0.2715591844628491 0  0.5 -0.2623292564012653 0  0.5 -0.253121909553727 0  0.5 -0.2439371050851549 0  0.5 -0.2347747685524501 0  0.5 -0.2256348634421331 0  0.5 -0.2165173209784076 0  0.5 -0.207422087829958 0  0.5 -0.1983491207029381 0  0.5 -0.1892983550950482 0  0.5 -0.1802697378305253 0  0.5 -0.1712632154965152 0  0.5 -0.1622787344187354 0  0.5 -0.1533162406595534 0  0.5 -0.1443756800160514 0  0.5 -0.1354569980180493 0  0.5 -0.1265601399261414 0  0.5 -0.1176850622761093 0  0.5 -0.1088317009011999 0  0.5 -0.09166666666668973 0  0.5 -0.08333333333337943 0  0.5 -0.07500000000006915 0  0.5 -0.06666666666675886 0  0.5 -0.05833333333344858 0  0.5 -0.05000000000013693 0  0.5 -0.04166666666678191 0  0.5 -0.03333333333342643 0  0.5 -0.02500000000006916 0  0.5 -0.01666666666671188 0  0.5 -0.00833333333335548 0  0.5 0.008333333333318314 0  0.5 0.01666666666663358 0  0.5 0.02499999999994162 0  0.5 0.03333333333325101 0  0.5 0.04166666666655769 0  0.5 0.04999999999986843 0  0.5 0.05833333333322258 0  0.5 0.06666666666657715 0  0.5 0.07499999999993352 0  0.5 0.08333333333328992 0  0.5 0.09166666666664541 0  0.5 0.1088317009011616 0  0.5 0.1176850622760307 0  0.5 0.1265601399260203 0  0.5 0.1354569980178909 0  0.5 0.1443756800158549 0  0.5 0.153316240659315 0  0.5 0.1622787344184454 0  0.5 0.1712632154961752 0  0.5 0.1802697378301332 0  0.5 0.1892983550946039 0  0.5 0.1983491207024433 0  0.5 0.2074220878294123 0  0.5 0.216517320977811 0  0.5 0.2256348634414833 0  0.5 0.2347747685517479 0  0.5 0.2439371050844009 0  0.5 0.2531219095529224 0  0.5 0.2623292564004089 0  0.5 0.2715591844619371 0  0.5 0.2808117567241139 0  0.5 0.290087031391723 0  0.5 0.2993850582216101 0  0.5 0.3087058944347426 0  0.5 0.3180495969703129 0  0.5 0.3274162224879299 0  0.5 0.3368058273696494 0  0.5 0.3462184677220051 0  0.5 0.3556541993780186 0  0.5 0.3651130778991989 0  0.5 0.3745951585775107 0  0.5 0.3841005081166359 0  0.5 0.3936291733052134 0  0.5 0.4031812128194852 0  0.5 0.412756689631945 0  0.5 0.4223556545379392 0  0.5 0.431978167868607 0  0.5 0.4416242912880781 0  0.5 0.4512940759249164 0  0.5 0.4609875815763912 0  0.5 0.4707048677449264 0  0.5 0.4804459958733726 0  0.5 0.4902110204680924 0  0.4900000000000277 0.5 0  0.4800000000000555 0.5 0  0.4700000000000832 0.5 0  0.4600000000001109 0.5 0  0.4500000000001387 0.5 0  0.4400000000001664 0.5 0  0.4300000000001942 0.5 0  0.4200000000002219 0.5 0  0.4100000000002497 0.5 0  0.4000000000002774 0.5 0  0.3900000000003052 0.5 0  0.3800000000003328 0.5 0  0.3700000000003606 0.5 0  0.3600000000003883 0.5 0  0.3500000000004161 0.5 0  0.3400000000004438 0.5 0  0.3300000000004716 0.5 0  0.3200000000004993 0.5 0  0.3100000000005271 0.5 0  0.3000000000005548 0.5 0  0.2900000000005825 0.5 0  0.2800000000006103 0.5 0  0.2700000000006381 0.5 0  0.2600000000006658 0.5 0  0.2500000000006935 0.5 0  0.2400000000007212 0.5 0  0.230000000000749 0.5 0  0.2200000000007767 0.5 0  0.2100000000008044 0.5 0  0.2000000000008322 0.5 0  0.19000000000086 0.5 0  0.1800000000008877 0.5 0  0.1700000000009154 0.5 0  0.1600000000009431 0.5 0  0.1500000000009709 0.5 0  0.1400000000009986 0.5 0  0.1300000000010264 0.5 0  0.1200000000010541 0.5 0  0.1100000000010818 0.5 0  0.1000000000011096 0.5 0  0.09000000000113734 0.5 0  0.08000000000116503 0.5 0  0.07000000000119283 0.5 0  0.06000000000122058 0.5 0  0.05000000000124827 0.5 0  0.04000000000127607 0.5 0  0.03000000000130376 0.5 0  0.02000000000133151 0.5 0  0.01000000000135925 0.5 0  1.376121439022882e-12 0.5 0  -0.009999999998640763 0.5 0  -0.01999999999866864 0.5 0  -0.02999999999869629 0.5 0  -0.03999999999872406 0.5 0  -0.04999999999875182 0.5 0  -0.05999999999877947 0.5 0  -0.06999999999880724 0.5 0  -0.079999999998835 0.5 0  -0.08999999999886266 0.5 0  -0.09999999999889042 0.5 0  -0.1099999999989182 0.5 0  -0.1199999999989459 0.5 0  -0.1299999999989737 0.5 0  -0.1399999999990014 0.5 0  -0.1499999999990291 0.5 0  -0.1599999999990568 0.5 0  -0.1699999999990847 0.5 0  -0.1799999999991124 0.5 0  -0.1899999999991401 0.5 0  -0.1999999999991678 0.5 0  -0.2099999999991955 0.5 0  -0.2199999999992234 0.5 0  -0.2299999999992511 0.5 0  -0.2399999999992788 0.5 0  -0.2499999999993066 0.5 0  -0.2599999999993342 0.5 0  -0.269999999999362 0.5 0  -0.2799999999993897 0.5 0  -0.2899999999994175 0.5 0  -0.2999999999994452 0.5 0  -0.3099999999994729 0.5 0  -0.3199999999995007 0.5 0  -0.3299999999995284 0.5 0  -0.3399999999995562 0.5 0  -0.3499999999995839 0.5 0  -0.3599999999996116 0.5 0  -0.3699999999996393 0.5 0  -0.379999999999667 0.5 0  -0.3899999999996949 0.5 0  -0.3999999999997226 0.5 0  -0.4099999999997503 0.5 0  -0.419999999999778 0.5 0  -0.4299999999998058 0.5 0  -0.4399999999998336 0.5 0  -0.4499999999998613 0.5 0  -0.4599999999998891 0.5 0  -0.4699999999999167 0.5 0  -0.4799999999999445 0.5 0  -0.4899999999999722 0.5 0  -0.5 0.4902110204681464 0  -0.5 0.4804459958734807 0  -0.5 0.4707048677450883 0  -0.5 0.4609875815766065 0  -0.5 0.4512940759251849 0  -0.5 0.4416242912883993 0  -0.5 0.4319781678689807 0  -0.5 0.4223556545383647 0  -0.5 0.4127566896324213 0  -0.5 0.4031812128200121 0  -0.5 0.3936291733057916 0  -0.5 0.3841005081172659 0  -0.5 0.3745951585781932 0  -0.5 0.3651130778999337 0  -0.5 0.3556541993788045 0  -0.5 0.3462184677228392 0  -0.5 0.3368058273705318 0  -0.5 0.3274162224888609 0  -0.5 0.3180495969712945 0  -0.5 0.3087058944357755 0  -0.5 0.299385058222682 0  -0.5 0.2900870313927414 0  -0.5 0.2808117567250807 0  -0.5 0.2715591844628491 0  -0.5 0.2623292564012653 0  -0.5 0.253121909553727 0  -0.5 0.2439371050851549 0  -0.5 0.2347747685524501 0  -0.5 0.2256348634421331 0  -0.5 0.2165173209784076 0  -0.5 0.207422087829958 0  -0.5 0.1983491207029381 0  -0.5 0.1892983550950482 0  -0.5 0.1802697378305253 0  -0.5 0.1712632154965152 0  -0.5 0.1622787344187354 0  -0.5 0.1533162406595534 0  -0.5 0.1443756800160514 0  -0.5 0.1354569980180493 0  -0.5 0.1265601399261414 0  -0.5 0.1176850622761093 0  -0.5 0.1088317009011999 0  -0.5 0.09167500000001694 0  -0.5 0.08335000000003931 0  -0.5 0.07502500000006167 0  -0.5 0.06670000000008947 0  -0.5 0.05837500000011001 0  -0.5 0.0500500000001328 0  -0.5 0.0417250000001127 0  -0.5 0.03340000000008944 0  -0.5 0.02507500000006573 0  -0.5 0.01675000000004653 0  -0.5 0.008425000000027341 
[...]
<PointData  Scalars="f_25"> 
<DataArray  type="Float64"  Name="f_25"  format="ascii">1.0000000000000000e+00  1.6128927197907253e-09  2.5642651796612377e-06  9.9505211169766439e-01  1.1233425144078239e-06  1.5871050652888218e-08  1.0000000000000000e+00  1.0000000000000000e+00  2.0826003400157465e-03  1.1727839085534063e-03  1.1821039529337218e-03  1.1815696892217189e-03  1.7914013770169268e-09  2.2288241438231374e-09  2.8053914837221216e-09  3.4373139950405018e-09  4.0414676167817490e-09  4.6265921879020920e-09  5.1905817448646351e-09  5.7765614657962672e-09  6.3417709101057280e-09  6.9256947411645238e-09  7.5335505122272255e-09  8.2176816911951626e-09  8.9427968968293001e-09  9.7333232425634029e-09  1.0613056673928520e-08  1.1604057677396320e-08  1.2762616808077435e-08  1.4014865698647797e-08  1.5420593378335328e-08  1.7008653054672707e-08  1.8703741667510144e-08  2.0572150169681156e-08  2.2679265360506536e-08  2.4888145017689338e-08  2.7328162875047229e-08  2.9971929912676716e-08  3.2825143298359177e-08  3.5971681081649146e-08  3.9249194945726254e-08  4.2865004885655812e-08  4.6672375520296248e-08  5.0747274596385852e-08  5.5075971791913764e-08  5.9719536238866606e-08  6.4628668154809872e-08  6.9784167643324113e-08  7.5233927328639979e-08  8.0996242655139867e-08  8.7035184783264552e-08  9.3307309001519510e-08  9.9911502689329701e-08  1.0682423854756947e-07  1.1392111652776594e-07  1.2137525375063658e-07  1.2903148304818934e-07  1.3706309879687891e-07  1.4522768896361381e-07  1.5364971605838122e-07  1.6238662233820291e-07  1.7128814457063044e-07  1.8042158282804368e-07  1.8977021967179510e-07  1.9942307676691484e-07  2.0927534140144385e-07  2.1914275606860766e-07  2.2923972262941351e-07  2.3955697801796256e-07  2.5009869255072268e-07  2.6078000648414794e-07  2.7155850942106640e-07  2.8272015561390159e-07  2.9410056626596502e-07  3.0541732127710345e-07  3.1703789093350978e-07  3.2893766347026663e-07  3.4086574017794353e-07  3.5325027793661676e-07  3.6571389369480074e-07  3.7846132125220686e-07  3.9161074697912207e-07  4.0511534724667873e-07  4.1901512750184977e-07  4.3328407075940291e-07  4.4780056047641643e-07  4.6290496462719413e-07  4.7868377333154571e-07  4.9494426150336104e-07  5.1202909165675070e-07  5.3015830778297807e-07  5.4899315500768016e-07  5.6923336493713078e-07  5.9040255071015489e-07  6.1291371874375844e-07  6.3724617498114855e-07  6.6385934291229928e-07  6.9257585884256308e-07  7.2420494379020468e-07  7.6001123167271749e-07  7.9967289499015301e-07  8.4545524918517927e-07  8.9816177320380625e-07  9.6227247396321079e-07  1.0378708083614097e-06  1.1331695949225968e-06  1.2553159364326556e-06  1.4159827194689458e-06  1.6266938488236683e-06  1.9030467577192859e-06  2.2600415555776642e-06  2.3759247361868630e-06  2.0416634365580420e-06  1.7807629969873215e-06  1.5769900810450639e-06  1.4311162362352731e-06  1.3237383331541371e-06  1.2447331312843072e-06  1.1840647469803678e-06  1.1366831544311069e-06  1.0997728281148769e-06  1.0698041576410054e-06  1.0460976270925701e-06  1.0266722470606730e-06  1.0113860422010392e-06  9.9862299301252691e-07  9.8815971404067357e-07  9.7992140671196303e-07  9.7322476999926596e-07  9.6780812663572312e-07  9.6392728077524993e-07  9.6124606963532928e-07  9.6027327073067768e-07  9.6138901993791566e-07  9.6568790068710155e-07  9.7524755517679380e-07  9.9376032938527961e-07  1.0286485673887859e-06  1.0898387392270581e-06  1.2055317378632170e-06  1.4181796363998466e-06  1.8031444883155824e-06  2.5302258761296733e-06  3.8362702185360475e-06  6.2413118251353329e-06  1.0521515727418155e-05  1.8659377056613985e-05  3.3491228764668472e-05  6.0739473010329543e-05  1.0973090923381905e-04  1.9712984738578740e-04  3.5937601629430695e-04  6.5190587925325456e-04  2.0750547253375836e-03  3.6549679217867492e-03  6.4455108006816102e-03  1.1191405288462519e-02  1.9600667997318022e-02  3.4407492400161006e-02  6.0190451218749656e-02  1.0529402311954887e-01  1.8364710020747385e-01  3.2600523674345278e-01  5.7239245408634953e-01  9.8593254724874568e-01  5.7434318813138052e-01  3.3105803076015555e-01  1.8535298528558775e-01  1.0563598225272959e-01  6.0411250542302057e-02  3.4450745743334281e-02  1.9673245876881320e-02  1.1177078977818177e-02  6.4691143958384711e-03  3.6836680276831220e-03  1.1570221943483009e-03  6.3754622456491800e-04  3.4949952851736531e-04  1.9427402579184303e-04  1.0724176183207611e-04  5.8829456629159108e-05  3.2482019352004494e-05  1.8020689665691852e-05  1.0426891839390242e-05  6.1666646997528993e-06  3.8517978397744435e-06  2.5688579628345365e-06  1.8911813717576120e-06  1.5183987422013442e-06  1.3172117242585937e-06  1.2115270879644629e-06  1.1521088041712808e-06  1.1209188355735607e-06  1.1047656115629714e-06  1.0969135136069697e-06  1.0935274660221492e-06  1.0930962993910836e-06  1.0932678935493649e-06  1.0950631859448209e-06  1.0966539196264883e-06  1.0987149563197475e-06  1.1014457561485835e-06  1.1031969034553122e-06  1.1053396601246198e-06  1.1076651831962639e-06  1.1098676877798312e-06  1.1118160635490245e-06  1.1135573635511307e-06  1.1153807690286585e-06  1.1170301531118326e-06  1.1185153400828874e-06  1.1196772062146017e-06  1.1208877731768596e-06  1.1217258095136521e-06  1.1229894080148510e-06  1.1227235424869270e-06  1.1232457341932074e-06  1.1157746891778997e-06  1.0998550086637762e-06  1.0797448014286315e-06  1.0577168084231834e-06  1.0347901184281487e-06  1.0118787171879219e-06  9.8942390379608815e-07  9.6756088545685881e-07  9.4587460621950024e-07  9.2480586361569831e-07  9.0430934247553877e-07  8.8443213140360415e-07  8.6473399255202971e-07  8.4575456585365659e-07  8.2715827446200940e-07  8.0883881457823326e-07  7.9097124733834574e-07  7.7344479567760248e-07  7.5630208000760433e-07  7.3918978473856715e-07  7.2252765204687682e-07  7.0591934608740646e-07  6.8962409148980122e-07  6.7318847348872941e-07  6.5703719281170663e-07  6.4106632933678362e-07  6.2490040107109191e-07  6.0885382989344974e-07  5.9243318045919902e-07  5.7626278614158738e-07  5.5994047395417011e-07  5.4355467831038188e-07  5.2692577596272271e-07  5.1019485144878184e-07  4.9337858195484862e-07  4.7646937180097508e-07  4.5944995142788318e-07  4.4232704036924811e-07  4.2503737542328175e-07  4.0741435473248014e-07  3.8998666327624702e-07  3.7251996384213617e-07  3.5511442800409522e-07  3.3784270785156562e-07  3.2045970707594883e-07  3.0345716251919194e-07  2.8632910079020743e-07  2.6947684638783425e-07  2.5301857949806581e-07  2.3696094870690722e-07  2.2132191234588694e-07  2.0584262208106241e-07  1.9115367104695891e-07  1.7679348945338493e-07  1.6292154876026904e-07  1.4980626924409542e-07  1.3710382153569629e-07  1.2506669083755021e-07  1.1370890029403305e-07  1.0291840002550736e-07  9.2893609709564790e-08  8.3399825443893618e-08  7.4613482200651421e-08  6.6425433656498375e-08  5.8871345911217364e-08  5.1890651908336470e-08  4.5427508234029304e-08  3.9631874429012533e-08  3.4270199378766071e-08  2.9455419168640917e-08  2.5095648653505217e-08  2.1212144783908523e-08  1.7714182548896746e-08  1.4653524863792676e-08  1.1919726840836354e-08  9.5459229012294883e-09  7.5233047532000104e-09  5.7683879360911577e-09  4.3133103009129584e-09  3.1065749484576952e-09  2.1521633336266058e-09  1.4373993676978003e-09  9.4221565478832144e-10  6.6589590936491629e-10  5.8645841045216433e-10  6.9206107211381125e-10  9.7126722699346210e-10  1.4066928719884663e-09  1.9894028269512697e-09  2.7028053532186221e-09  3.5665654778669743e-09  4.5757323221325736e-09  5.7549567707038249e-09  7.0762065082482650e-09  8.5880000270244478e-09  1.0227048226208831e-08  1.2002598884008463e-08  1.3730015516049710e-08  1.5154982935374387e-08  1.5872943033749347e-08  1.5821093100524517e-08  1.5790813007855723e-08  1.5612621134993292e-08  1.5475032574413290e-08  1.5297711974785076e-08  1.5073064803329481e-08  1.4843218987042212e-08  1.4548694270033500e-08  1.4259117786985670e-08  1.3937769880210595e-08  1.3589689271710277e-08  1.3206152989626345e-08  1.2801185374778159e-08  1.2385791886025913e-08  1.1963739330720580e-08  1.1552198181072774e-08  1.1169002081428571e-08  1.0868340762082619e-08  1.0765029696737876e-08  1.1021019292559101e-08  1.1942695277418889e-08  1.4158934179500843e-08  1.8806066392172080e-08  2.7884437534486965e-08  4.5227718082226361e-08  7.7703785437362292e-08  1.3895366823293732e-07  2.5306754165419902e-07  4.6393102956016547e-07  8.5322663509208084e-07  1.5606033137424536e-06  2.8729411633881283e-06  5.2965707688171565e-06  9.6256055848339206e-06  1.7807286214338922e-05  3.2580540947174095e-05  5.9489719812915117e-05  1.0813378660713579e-04  1.9581918042343622e-04  3.5979692499925336e-04  6.5481781298361980e-04  2.0961164926823080e-03  3.6840474681891877e-03  6.4858480806623793e-03  1.1256664955926182e-02  1.9737252559696824e-02  3.4720941319474834e-02  6.0782049341911587e-02  1.0622165162303990e-01  1.8493003603476596e-01  3.2702515526273229e-01  5.7160142369691003e-01  1.0000000000000000e+00  1.0000000000000000e+00  1.0000000000000000e+00  1.0000000000000000e+00  1.0000000000000000e+00  1.0000000000000000e+00  1.0000000000000000e+00  1.0000000000000000e+00  1.0000000000000000e+00  1.0000000000000000e+00  1.0000000000000000e+00  1.0000000000000000e+00  1.0000000000000000e+00  1.0000000000000000e+00  1.0000000000000000e+00  1.0000000000000000e+00  1.0000000000000000e+00  1.0000000000000000e+00  1.0000000000000000e+00  1.0000000000000000e+00  1.0000000000000000e+00  1.0000000000000000e+00  1.0000000000000000e+00  1.0000000000000000e+00  1.0000000000000000e+00  1.0000000000000000e+00  1.0000000000000000e+00  1.0000000000000000e+00  1.0000000000000000e+00  1.0000000000000000e+00  1.0000000000000000e+00  1.0000000000000000e+00  1.0000000000000000e+00  1.0000000000000000e+00  1.0000000000000000e+00  9.9999999999999989e-01  1.0000000000000000e+00  1.0000000000000000e+00  1.0000000000000000e+00  1.0000000000000000e+00  1.0000000000000000e+00  1.0000000000000000e+00  1.0000000000000000e+00  1.0000000000000000e+00  1.0000000000000000e+00  1.0000000000000000e+00  1.0000000000000000e+00  1.0000000000000000e+00  1.0000000000000000e+00  1.0000000000000000e+00  1.0000000000000000e+00  1.0000000000000000e+00  1.0000000000000000e+00  1.0000000000000000e+00  1.0000000000000000e+00  1.0000000000000000e+00  1.0000000000000000e+00  1.0000000000000000e+00  1.0000000000000000e+00  1.0000000000000000e+00  1.0000000000000000e+00  1.0000000000000000e+00  1.0000000000000000e+00  1.0000000000000000e+00  1.0000000000000000e+00  1.0000000000000000e+00  1.0000000000000000e+00  1.0000000000000000e+00  1.0000000000000000e+00  1.0000000000000000e+00  1.0000000000000000e+00  1.0000000000000000e+00  1.0000000000000000e+00  1.0000000000000000e+00  1.0000000000000000e+00  1.0000000000000000e+00  1.0000000000000000e+00  1.0000000000000000e+00  1.0000000000000000e+00  1.0000000000000000e+00  1.0000000000000000e+00  1.0000000000000000e+00  1.0000000000000000e+00  1.0000000000000000e+00  1.0000000000000000e+00  1.0000000000000000e+00  1.0000000000000000e+00  1.0000000000000000e+00  1.0000000000000000e+00  9.9999999999999989e-01  1.0000000000000000e+00  1.0000000000000000e+00  1.0000000000000000e+00  1.0000000000000000e+00  1.0000000000000000e+00  1.0000000000000000e+00  1.0000000000000000e+00  1.0000000000000000e+00  1.0000000000000000e+00  1.0000000000000000e+00  1.0000000000000000e+00  1.0000000000000000e+00  1.0000000000000000e+00  1.0000000000000000e+00  1.0000000000000000e+00  1.0000000000000000e+00  1.0000000000000000e+00  1.0000000000000000e+00  1.0000000000000000e+00  1.0000000000000000e+00  5.7157081540513222e-01  3.2704024578107804e-01  1.8489315725230218e-01  1.0623927488280771e-01  6.0789268501144265e-02  3.4726290631221950e-02  1.9744685368734922e-02  1.1258434711227439e-02  6.4895802839609997e-03  3.6859954427538636e-03  2.0973560184985203e-03  6.5513214377277819e-04  3.5991691782622729e-04  1.9537151672668725e-04  1.0819478506443252e-04  5.9556991160308962e-05  3.2618719463835769e-05  1.7822745029346891e-05  9.6356303360518787e-06  5.2996478678521695e-06  2.8740097005655058e-06  1.5613904516500205e-06  8.5385184303126028e-07  4.6441678940738878e-07  2.5322197057616085e-07  1.3888091572454060e-07  7.7436267904788493e-08  4.4758735791077463e-08  2.7203668719149064e-08  1.7866598780388317e-08  1.2930089865792930e-08  1.0388479197283361e-08  9.0959458243452970e-09  8.4271077872040929e-09  8.0653983317365851e-09  7.8512545523362173e-09  7.6807899666522503e-09  7.5031519874555561e-09  7.2802666197277881e-09  7.0070140103443855e-09  6.6946175384488978e-09  6.3197421596920895e-09  5.8947403695727269e-09  5.4255265810160674e-09  4.9126250720213539e-09  4.3863946780395571e-09  3.8725315478909266e-09  3.3472943606731562e-09  2.8309893140952049e-09  2.3720770808699349e-09  1.9710500553323993e-09  1.7710766982752484e-09  1.6385761437220318e-09  1.1789204591934135e-03  1.1823895908302583e-03  1.1825378040545064e-03  1.1783921919093603e-03  1.1725500132088403e-03  1.1865520171788807e-03  1.1823445479433147e-03  1.1649286474858548e-03  1.1761301871330190e-03  1.1877958251412502e-03  1.1644083961975778e-03  1.1772141856505967e-03  1.1866794110386954e-03  1.1848099523063392e-03  1.1827273184458489e-03  1.1728081802094936e-03  1.1708285842486261e-03  1.1599252563967717e-03  1.1781972966392060e-03  1.1818605660845235e-03  1.1710665021580969e-03  1.1707875962005633e-03  1.1852154714704448e-03  1.1857317457385588e-03  1.1735556850809761e-03  1.1765843149955592e-03  1.1783771015711139e-03  1.1720842651671798e-03  1.1845677855648884e-03  1.1781992107008654e-03  1.1702465538935890e-03  1.1757999710475594e-03  1.1763654251135157e-03  1.1653855696574509e-03  1.1765435783707282e-03  1.1925437032541831e-03  1.1657454555727515e-03  1.1823811140962807e-03  1.1817499724886263e-03  1.1674918140544958e-03  1.1922197798608493e-03  1.1867588359004736e-03  1.1722719552778079e-03  1.1877618352668085e-03  1.1776543357124257e-03  1.1860845877768077e-03  1.2155980522136531e-03  1.2378813887363436e-03  1.2542890269408304e-03  1.3074331770929063e-03  1.3636897696476472e-03  1.4197449565072466e-03  1.5298843233684382e-03  1.6184557683471888e-03  1.7102245292634479e-03  1.8250565642422124e-03  1.9022409616357326e-03  1.9491164223668935e-03  2.0436650308624472e-03  2.0708356938833957e-03  2.0797950305269678e-03  2.1047723275685439e-03  2.0670549499275230e-03  2.0828981730252895e-03  2.0821841612437626e-03  2.0765570906611606e-03  2.0541751039338460e-03  2.0167361564752111e-03  2.0447810653769585e-03  2.0492727256791630e-03  2.0366798817466449e-03  2.0208474309217394e-03  2.0232888622665778e-03  2.0171982374303315e-03  1.9839658612492584e-03  2.0005064606271237e-03  1.9895980038342393e-03  1.9698545742487666e-03  1.9889528491545665e-03  1.9767747262975444e-03  1.9626536277251964e-03  1.9862252970637723e-03  1.9961395934034220e-03  1.9760153613157497e-03  1.9690589297967341e-03  2.0185352272015212e-03  2.0120197299198835e-03  2.0139862254334837e-03  2.0141066457907853e-03  1.9878141875530253e-03  2.0101473932851140e-03  2.0270001347599061e-03  2.0275078094687971e-03  2.0284110731933445e-03  1.9975169346951338e-03  2.0264316690855990e-03  2.0425866337485141e-03  2.0520222010291531e-03  2.0415656342031058e-03  2.0467553029214582e-03  2.0590028545213520e-03  2.0707258950023906e-03  2.0721418179206899e-03  2.0856592208081779e-03  2.0959951206023352e-03  2.0853937522826447e-03  2.0908589467241744e-03  2.0862097954215796e-03  2.0673709214932036e-03  2.0967164548732716e-03  2.1107310368012151e-03  1.1794953379729695e-03  1.1825744126720366e-03  1.1827081100472174e-03  1.1785088878833562e-03  1.1727013192277386e-03  1.1871303990851232e-03  1.1825190655068282e-03  1.1653069005578896e-03  1.1759462946516780e-03  1.1871414843409168e-03  1.1659240625485261e-03  1.1762300343337428e-03  1.1856517344639712e-03  1.1836510610079556e-03  1.1814979972718509e-03  1.1721848979822675e-03  1.1690810280571983e-03  1.1560849288245159e-03  1.1758511176608859e-03  1.1836947205371040e-03  1.1735514779462300e-03  1.1746541944911749e-03  1.1869491544090210e-03  1.1876846845077481e-03  1.1745468498118731e-03  1.1772741748089935e-03  1.1795157013277534e-03  1.1732250361630443e-03  1.1848455217046616e-03  1.1787047023899410e-03  1.1700867506168535e-03  1.1742567133645782e-03  1.1733522504764622e-03  1.1623194887238903e-03  1.1733668005160537e-03  1.1899296924053561e-03  1.1625891053608178e-03  1.1791152993181695e-03  1.1773932417286121e-03  1.1627042806364577e-03  1.1881369640822617e-03  1.1816214625591922e-03  1.1669646327360083e-03  1.1812382048546641e-03  1.1665849908570182e-03  1.1665027931962522e-03  1.1815058289110524e-03  1.1826931935149157e-03  1.1675869794938905e-03  1.1769988150242565e-03  1.1772498157726810e-03  1.1600254736699200e-03  1.1784374409706086e-03  1.1755096173262564e-03  1.1680608061495304e-03  1.1772492362064652e-03  1.1733145966947062e-03  1.1578104704031813e-03  1.1796543433653076e-03  1.1752219119113506e-03  1.1677383817410663e-03  1.1774425403989275e-03  1.1561238963011778e-03  1.1667702193011379e-03  1.1695147846967275e-03  1.1696716702928218e-03  1.1607581692865692e-03  1.1439985404823199e-03  1.1648101949766278e-03  1.1734433364682878e-03  1.1720310022396280e-03  1.1665595367836182e-03  1.1743321508088664e-03  1.1764693080527130e-03  1.1628091445736247e-03  1.1779920979301600e-03  1.1765442859245758e-03  1.1685264889564977e-03  1.1817503709204212e-03  1.1741495510735945e-03  1.1631491455198620e-03  1.1732288922969307e-03  1.1742720817185580e-03  1.1599173067410326e-03  1.1493344453387521e-03  1.1738541068969650e-03  1.1674068412069810e-03  1.1678736055783564e-03  1.1690823437791879e-03  1.1553412636821510e-03  1.1689654099368142e-03  1.1787135968699884e-03  1.1766740113179752e-03  1.1727871814567335e-03  1.1510934962607796e-03  1.1651763921560767e-03  1.1725652653930387e-03  1.1767460839800291e-03  1.1681866196147344e-03  1.1678927398546539e-03  1.1702731096998697e-03  1.1724454663833610e-03  1.1700301175670408e-03  1.1751255314743480e-03  1.1796362731067895e-03  1.1736620252127451e-03  1.1756872796472911e-03  1.1736142415138102e-03  1.1623548962176873e-03  1.1798080715195703e-03  1.1894407952857497e-03  9.9250306977851843e-01  9.9780948058618757e-01  9.9373035410602073e-01  9.9516945116048439e-01  9.9586713030823149e-01  9.9529696939487899e-01  9.9574319317916260e-01  9.9611778166399667e-01  9.9502264533618645e-01  9.9550215032126677e-01  9.9416934295126869e-01  9.9723586650797791e-01  9.9461618717950362e-01  9.9630197748824256e-01  9.9575484523094859e-01  9.9624240071562375e-01  9.9605916768948244e-01  9.9598282221763113e-01  9.9624607603267290e-01  9.9621945412449142e-01  9.9631246004637064e-01  9.9641597316536668e-01  9.9646028642622164e-01  9.9674863065648778e-01  9.9675787268122285e-01  9.9501413712960884e-01  9.9829918447347343e-01  9.9547343140912636e-01  9.9687516287122024e-01  9.9573120150436167e-01  9.9504361766676908e-01  9.9511380658073678e-01  9.9580800752239906e-01  9.9687227231014752e-01  9.9544546687130653e-01  9.9847190438075084e-01  9.9509653006070742e-01  9.9510516149848416e-01  9.9806020427373909e-01  9.9457647544877059e-01  9.9547208694014233e-01  9.9522344176191657e-01  9.9637309947864594e-01  9.9600755045452882e-01  9.9559439410261530e-01  9.9568605159950629e-01  9.9483353040429989e-01  9.9551842965455473e-01  9.9599402084542010e-01  9.9539573302499895e-01  9.9600070166772647e-01  9.9536164899045021e-01  9.9604308424309873e-01  9.9430091860609726e-01  9.9663543992234505e-01  1.2015058745463775e-07  5.3368172211369360e-09  4.9925035250629481e-07  7.4167541231422094e-07  8.2193060374722755e-07  3.1104615377819097e-07  3.5097467445291936e-07  1.2214280236924176e-06  6.0863781086101982e-07  2.7499877564456975e-07  3.1263331512915371e-08  2.0605733245940155e-09  1.9917337486094905e-06  8.8254549276281413e-07  1.6766423332252196e-06  1.5097107435887834e-06  3.3777337819195329e-06  4.4600289667617917e-07  4.4800763857524027e-09  1.1606104189545238e-07  4.9838921459554612e