<?xml version="1.0"?>
<VTKFile type="UnstructuredGrid"  version="0.1"  >
<UnstructuredGrid>
<Piece  NumberOfPoints="15540" NumberOfCells="30546">
<Points>
<DataArray  type="Float64"  NumberOfComponents="3"  format="ascii">0 0 0  -0.5 -0.5 0  0.5 -0.5 0  0.5 0 0  0.5 0.5 0  -0.5 0.5 0  -0.5 0.0001 0  -0.5 -0.0001 0  0.5 0.1 0  0.5 -0.1 0  -0.5 -0.1 0  -0.5 0.1 0  -0.4900000000000277 -0.5 0  -0.4800000000000555 -0.5 0  -0.4700000000000832 -0.5 0  -0.4600000000001109 -0.5 0  -0.4500000000001387 -0.5 0  -0.4400000000001664 -0.5 0  -0.4300000000001942 -0.5 0  -0.4200000000002219 -0.5 0  -0.4100000000002497 -0.5 0  -0.4000000000002774 -0.5 0  -0.3900000000003052 -0.5 0  -0.3800000000003328 -0.5 0  -0.3700000000003606 -0.5 0  -0.3600000000003883 -0.5 0  -0.3500000000004161 -0.5 0  -0.3400000000004438 -0.5 0  -0.3300000000004716 -0.5 0  -0.3200000000004993 -0.5 0  -0.3100000000005271 -0.5 0  -0.3000000000005548 -0.5 0  -0.2900000000005825 -0.5 0  -0.2800000000006103 -0.5 0  -0.2700000000006381 -0.5 0  -0.2600000000006658 -0.5 0  -0.2500000000006935 -0.5 0  -0.2400000000007212 -0.5 0  -0.230000000000749 -0.5 0  -0.2200000000007767 -0.5 0  -0.2100000000008044 -0.5 0  -0.2000000000008322 -0.5 0  -0.19000000000086 -0.5 0  -0.1800000000008877 -0.5 0  -0.1700000000009154 -0.5 0  -0.1600000000009431 -0.5 0  -0.1500000000009709 -0.5 0  -0.1400000000009986 -0.5 0  -0.1300000000010264 -0.5 0  -0.1200000000010541 -0.5 0  -0.1100000000010818 -0.5 0  -0.1000000000011096 -0.5 0  -0.09000000000113734 -0.5 0  -0.08000000000116503 -0.5 0  -0.07000000000119283 -0.5 0  -0.06000000000122058 -0.5 0  -0.05000000000124827 -0.5 0  -0.04000000000127607 -0.5 0  -0.03000000000130376 -0.5 0  -0.02000000000133151 -0.5 0  -0.01000000000135925 -0.5 0  -1.376121439022882e-12 -0.5 0  0.009999999998640763 -0.5 0  0.01999999999866864 -0.5 0  0.02999999999869629 -0.5 0  0.03999999999872406 -0.5 0  0.04999999999875182 -0.5 0  0.05999999999877947 -0.5 0  0.06999999999880724 -0.5 0  0.079999999998835 -0.5 0  0.08999999999886266 -0.5 0  0.09999999999889042 -0.5 0  0.1099999999989182 -0.5 0  0.1199999999989459 -0.5 0  0.1299999999989737 -0.5 0  0.1399999999990014 -0.5 0  0.1499999999990291 -0.5 0  0.1599999999990568 -0.5 0  0.1699999999990847 -0.5 0  0.1799999999991124 -0.5 0  0.1899999999991401 -0.5 0  0.1999999999991678 -0.5 0  0.2099999999991955 -0.5 0  0.2199999999992234 -0.5 0  0.2299999999992511 -0.5 0  0.2399999999992788 -0.5 0  0.2499999999993066 -0.5 0  0.2599999999993342 -0.5 0  0.269999999999362 -0.5 0  0.2799999999993897 -0.5 0  0.2899999999994175 -0.5 0  0.2999999999994452 -0.5 0  0.3099999999994729 -0.5 0  0.3199999999995007 -0.5 0  0.3299999999995284 -0.5 0  0.3399999999995562 -0.5 0  0.3499999999995839 -0.5 0  0.3599999999996116 -0.5 0  0.3699999999996393 -0.5 0  0.379999999999667 -0.5 0  0.3899999999996949 -0.5 0  0.3999999999997226 -0.5 0  0.4099999999997503 -0.5 0  0.419999999999778 -0.5 0  0.4299999999998058 -0.5 0  0.4399999999998336 -0.5 0  0.4499999999998613 -0.5 0  0.4599999999998891 -0.5 0  0.4699999999999167 -0.5 0  0.4799999999999445 -0.5 0  0.4899999999999722 -0.5 0  0.5 -0.4902110204681464 0  0.5 -0.4804459958734807 0  0.5 -0.4707048677450883 0  0.5 -0.4609875815766065 0  0.5 -0.4512940759251849 0  0.5 -0.4416242912883993 0  0.5 -0.4319781678689807 0  0.5 -0.4223556545383647 0  0.5 -0.4127566896324213 0  0.5 -0.4031812128200121 0  0.5 -0.3936291733057916 0  0.5 -0.3841005081172659 0  0.5 -0.3745951585781932 0  0.5 -0.3651130778999337 0  0.5 -0.3556541993788045 0  0.5 -0.3462184677228392 0  0.5 -0.3368058273705318 0  0.5 -0.3274162224888609 0  0.5 -0.3180495969712945 0  0.5 -0.3087058944357755 0  0.5 -0.299385058222682 0  0.5 -0.2900870313927414 0  0.5 -0.2808117567250807 0  0.5 -0.2715591844628491 0  0.5 -0.2623292564012653 0  0.5 -0.253121909553727 0  0.5 -0.2439371050851549 0  0.5 -0.2347747685524501 0  0.5 -0.2256348634421331 0  0.5 -0.2165173209784076 0  0.5 -0.207422087829958 0  0.5 -0.1983491207029381 0  0.5 -0.1892983550950482 0  0.5 -0.1802697378305253 0  0.5 -0.1712632154965152 0  0.5 -0.1622787344187354 0  0.5 -0.1533162406595534 0  0.5 -0.1443756800160514 0  0.5 -0.1354569980180493 0  0.5 -0.1265601399261414 0  0.5 -0.1176850622761093 0  0.5 -0.1088317009011999 0  0.5 -0.09166666666668973 0  0.5 -0.08333333333337943 0  0.5 -0.07500000000006915 0  0.5 -0.06666666666675886 0  0.5 -0.05833333333344858 0  0.5 -0.05000000000013693 0  0.5 -0.04166666666678191 0  0.5 -0.03333333333342643 0  0.5 -0.02500000000006916 0  0.5 -0.01666666666671188 0  0.5 -0.00833333333335548 0  0.5 0.008333333333318314 0  0.5 0.01666666666663358 0  0.5 0.02499999999994162 0  0.5 0.03333333333325101 0  0.5 0.04166666666655769 0  0.5 0.04999999999986843 0  0.5 0.05833333333322258 0  0.5 0.06666666666657715 0  0.5 0.07499999999993352 0  0.5 0.08333333333328992 0  0.5 0.09166666666664541 0  0.5 0.1088317009011616 0  0.5 0.1176850622760307 0  0.5 0.1265601399260203 0  0.5 0.1354569980178909 0  0.5 0.1443756800158549 0  0.5 0.153316240659315 0  0.5 0.1622787344184454 0  0.5 0.1712632154961752 0  0.5 0.1802697378301332 0  0.5 0.1892983550946039 0  0.5 0.1983491207024433 0  0.5 0.2074220878294123 0  0.5 0.216517320977811 0  0.5 0.2256348634414833 0  0.5 0.2347747685517479 0  0.5 0.2439371050844009 0  0.5 0.2531219095529224 0  0.5 0.2623292564004089 0  0.5 0.2715591844619371 0  0.5 0.2808117567241139 0  0.5 0.290087031391723 0  0.5 0.2993850582216101 0  0.5 0.3087058944347426 0  0.5 0.3180495969703129 0  0.5 0.3274162224879299 0  0.5 0.3368058273696494 0  0.5 0.3462184677220051 0  0.5 0.3556541993780186 0  0.5 0.3651130778991989 0  0.5 0.3745951585775107 0  0.5 0.3841005081166359 0  0.5 0.3936291733052134 0  0.5 0.4031812128194852 0  0.5 0.412756689631945 0  0.5 0.4223556545379392 0  0.5 0.431978167868607 0  0.5 0.4416242912880781 0  0.5 0.4512940759249164 0  0.5 0.4609875815763912 0  0.5 0.4707048677449264 0  0.5 0.4804459958733726 0  0.5 0.4902110204680924 0  0.4900000000000277 0.5 0  0.4800000000000555 0.5 0  0.4700000000000832 0.5 0  0.4600000000001109 0.5 0  0.4500000000001387 0.5 0  0.4400000000001664 0.5 0  0.4300000000001942 0.5 0  0.4200000000002219 0.5 0  0.4100000000002497 0.5 0  0.4000000000002774 0.5 0  0.3900000000003052 0.5 0  0.3800000000003328 0.5 0  0.3700000000003606 0.5 0  0.3600000000003883 0.5 0  0.3500000000004161 0.5 0  0.3400000000004438 0.5 0  0.3300000000004716 0.5 0  0.3200000000004993 0.5 0  0.3100000000005271 0.5 0  0.3000000000005548 0.5 0  0.2900000000005825 0.5 0  0.2800000000006103 0.5 0  0.2700000000006381 0.5 0  0.2600000000006658 0.5 0  0.2500000000006935 0.5 0  0.2400000000007212 0.5 0  0.230000000000749 0.5 0  0.2200000000007767 0.5 0  0.2100000000008044 0.5 0  0.2000000000008322 0.5 0  0.19000000000086 0.5 0  0.1800000000008877 0.5 0  0.1700000000009154 0.5 0  0.1600000000009431 0.5 0  0.1500000000009709 0.5 0  0.1400000000009986 0.5 0  0.1300000000010264 0.5 0  0.1200000000010541 0.5 0  0.1100000000010818 0.5 0  0.1000000000011096 0.5 0  0.09000000000113734 0.5 0  0.08000000000116503 0.5 0  0.07000000000119283 0.5 0  0.06000000000122058 0.5 0  0.05000000000124827 0.5 0  0.04000000000127607 0.5 0  0.03000000000130376 0.5 0  0.02000000000133151 0.5 0  0.01000000000135925 0.5 0  1.376121439022882e-12 0.5 0  -0.009999999998640763 0.5 0  -0.01999999999866864 0.5 0  -0.02999999999869629 0.5 0  -0.03999999999872406 0.5 0  -0.04999999999875182 0.5 0  -0.05999999999877947 0.5 0  -0.06999999999880724 0.5 0  -0.079999999998835 0.5 0  -0.08999999999886266 0.5 0  -0.09999999999889042 0.5 0  -0.1099999999989182 0.5 0  -0.1199999999989459 0.5 0  -0.1299999999989737 0.5 0  -0.1399999999990014 0.5 0  -0.1499999999990291 0.5 0  -0.1599999999990568 0.5 0  -0.1699999999990847 0.5 0  -0.1799999999991124 0.5 0  -0.1899999999991401 0.5 0  -0.1999999999991678 0.5 0  -0.2099999999991955 0.5 0  -0.2199999999992234 0.5 0  -0.2299999999992511 0.5 0  -0.2399999999992788 0.5 0  -0.2499999999993066 0.5 0  -0.2599999999993342 0.5 0  -0.269999999999362 0.5 0  -0.2799999999993897 0.5 0  -0.2899999999994175 0.5 0  -0.2999999999994452 0.5 0  -0.3099999999994729 0.5 0  -0.3199999999995007 0.5 0  -0.3299999999995284 0.5 0  -0.3399999999995562 0.5 0  -0.3499999999995839 0.5 0  -0.3599999999996116 0.5 0  -0.3699999999996393 0.5 0  -0.379999999999667 0.5 0  -0.3899999999996949 0.5 0  -0.3999999999997226 0.5 0  -0.4099999999997503 0.5 0  -0.419999999999778 0.5 0  -0.4299999999998058 0.5 0  -0.4399999999998336 0.5 0  -0.4499999999998613 0.5 0  -0.4599999999998891 0.5 0  -0.4699999999999167 0.5 0  -0.4799999999999445 0.5 0  -0.4899999999999722 0.5 0  -0.5 0.4902110204681464 0  -0.5 0.4804459958734807 0  -0.5 0.4707048677450883 0  -0.5 0.4609875815766065 0  -0.5 0.4512940759251849 0  -0.5 0.4416242912883993 0  -0.5 0.4319781678689807 0  -0.5 0.4223556545383647 0  -0.5 0.4127566896324213 0  -0.5 0.4031812128200121 0  -0.5 0.3936291733057916 0  -0.5 0.3841005081172659 0  -0.5 0.3745951585781932 0  -0.5 0.3651130778999337 0  -0.5 0.3556541993788045 0  -0.5 0.3462184677228392 0  -0.5 0.3368058273705318 0  -0.5 0.3274162224888609 0  -0.5 0.3180495969712945 0  -0.5 0.3087058944357755 0  -0.5 0.299385058222682 0  -0.5 0.2900870313927414 0  -0.5 0.2808117567250807 0  -0.5 0.2715591844628491 0  -0.5 0.2623292564012653 0  -0.5 0.253121909553727 0  -0.5 0.2439371050851549 0  -0.5 0.2347747685524501 0  -0.5 0.2256348634421331 0  -0.5 0.2165173209784076 0  -0.5 0.207422087829958 0  -0.5 0.1983491207029381 0  -0.5 0.1892983550950482 0  -0.5 0.1802697378305253 0  -0.5 0.1712632154965152 0  -0.5 0.1622787344187354 0  -0.5 0.1533162406595534 0  -0.5 0.1443756800160514 0  -0.5 0.1354569980180493 0  -0.5 0.1265601399261414 0  -0.5 0.1176850622761093 0  -0.5 0.1088317009011999 0  -0.5 0.09167500000001694 0  -0.5 0.08335000000003931 0  -0.5 0.07502500000006167 0  -0.5 0.06670000000008947 0  -0.5 0.05837500000011001 0  -0.5 0.0500500000001328 0  -0.5 0.0417250000001127 0  -0.5 0.03340000000008944 0  -0.5 0.02507500000006573 0  -0.5 0.01675000000004653 0  -0.5 0.008425000000027341 
[...]
<PointData  Scalars="f_25"> 
<DataArray  type="Float64"  Name="f_25"  format="ascii">1.0000000000000000e+00  2.5864338326398440e-09  4.1689515649663819e-06  9.9421204043553957e-01  1.8270996412430312e-06  2.5839895247968549e-08  1.0000000000000000e+00  1.0000000000000000e+00  2.0799494609551952e-03  1.1725837424947760e-03  1.1821042128875741e-03  1.1815699124862905e-03  2.8800808634931924e-09  3.5871427514636706e-09  4.5143749216110889e-09  5.5299094716814997e-09  6.4998160425877855e-09  7.4390080095363359e-09  8.3443735855299725e-09  9.2854504664157042e-09  1.0193446966581550e-08  1.1131611216082279e-08  1.2108188271788850e-08  1.3207376500961476e-08  1.4372546329625310e-08  1.5643408819859721e-08  1.7058506487464952e-08  1.8653527130306037e-08  2.0519325586479304e-08  2.2536874139122175e-08  2.4802628416642538e-08  2.7363244981000720e-08  3.0097348111275373e-08  3.3111850316436227e-08  3.6512514198314303e-08  4.0078270665927764e-08  4.4018130571612746e-08  4.8287950035923732e-08  5.2897096635769766e-08  5.7981420833045803e-08  6.3278421200721911e-08  6.9123353535915151e-08  7.5279186539989203e-08  8.1868921845147036e-08  8.8870532704341974e-08  9.6383075229201138e-08  1.0432710996904279e-07  1.1267139892677132e-07  1.2149365887296718e-07  1.3082412940546247e-07  1.4060436927761637e-07  1.5076445856622689e-07  1.6146450871247545e-07  1.7266748193297025e-07  1.8417111920936844e-07  1.9625680868268571e-07  2.0867189536542414e-07  2.2169927879682084e-07  2.3494411684369716e-07  2.4861102464675027e-07  2.6279230769266510e-07  2.7724331016071932e-07  2.9207348484362394e-07  3.0725750900942639e-07  3.2293946801990605e-07  3.3894680782426985e-07  3.5498341498372709e-07  3.7139743442890483e-07  3.8817116415892694e-07  4.0531332188409307e-07  4.2268631733172093e-07  4.4022120738997433e-07  4.5838183355056669e-07  4.7690008407569989e-07  4.9531968559288335e-07  5.1423539790880056e-07  5.3360740148607941e-07  5.5302971940695916e-07  5.7319552028366490e-07  5.9349356139051549e-07  6.1425449491151850e-07  6.3567066539847384e-07  6.5766630756521792e-07  6.8030655140391149e-07  7.0354801612356043e-07  7.2719368066542257e-07  7.5179577494690339e-07  7.7749545439199128e-07  8.0397955810381671e-07  8.3180421559335798e-07  8.6132758445967167e-07  8.9199819057801655e-07  9.2495445902219238e-07  9.5942083797068003e-07  9.9606868849390089e-07  1.0356780099533320e-06  1.0789958520964800e-06  1.1257324348292626e-06  1.1772042709611170e-06  1.2354682540778924e-06  1.2999988102368774e-06  1.3744805573304801e-06  1.4602170814251045e-06  1.5644956715315677e-06  1.6874463284756535e-06  1.8424224788544595e-06  2.0410379270083260e-06  2.3022708364060588e-06  2.6448422594920361e-06  3.0941035664766908e-06  3.6744309285637672e-06  3.8628405330363412e-06  3.3195781481357488e-06  2.8955955004917573e-06  2.5644709461816708e-06  2.3274591203113931e-06  2.1530144033287367e-06  2.0246801190368788e-06  1.9261430051964448e-06  1.8491945113017404e-06  1.7892587881121202e-06  1.7406003855946327e-06  1.7021117187237459e-06  1.6705727235085274e-06  1.6457497025977540e-06  1.6250156296614937e-06  1.6080035866885761e-06  1.5945750476906903e-06  1.5836088260439803e-06  1.5746539142956298e-06  1.5680528629259120e-06  1.5631694655188981e-06  1.5606045645409626e-06  1.5606174281663582e-06  1.5642904212278594e-06  1.5736922547371918e-06  1.5924809700944166e-06  1.6280702560850061e-06  1.6904440103125868e-06  1.8076072627219992e-06  2.0223891458516266e-06  2.4098524982324087e-06  3.1398915182254015e-06  4.4490321764358492e-06  6.8570478908320003e-06  1.1139904904300010e-05  1.9278144627919721e-05  3.4106447234658936e-05  6.1342743521120523e-05  1.1030662784289040e-04  1.9765022749001463e-04  3.5978183776945455e-04  6.5209714878261289e-04  2.0741612281658327e-03  3.6528490006095234e-03  6.4412143709373327e-03  1.1183393671103267e-02  1.9586068868654296e-02  3.4381307979105137e-02  6.0144165570111992e-02  1.0521287083890955e-01  1.8350638226791630e-01  3.2575803523779545e-01  5.7196667355976105e-01  9.8360053167609118e-01  5.7299133364499499e-01  3.3030136595667819e-01  1.8495847587927272e-01  1.0542254874780711e-01  6.0294963237493372e-02  3.4387563224641003e-02  1.9638638270709080e-02  1.1158267730107274e-02  6.4588325257490175e-03  3.6782827837493403e-03  1.1559143307688664e-03  6.3728210019276519e-04  3.4969026013847206e-04  1.9470035906886293e-04  1.0779497891501459e-04  5.9449193970454498e-05  3.3134866605992924e-05  1.8689669453647150e-05  1.1102140218621028e-05  6.8445147787483090e-06  4.5301140816932149e-06  3.2466425111712659e-06  2.5684037648358360e-06  2.1949792785559524e-06  1.9939344239322387e-06  1.8880766682105195e-06  1.8290284552991390e-06  1.7984232667550404e-06  1.7830853033263655e-06  1.7762447466933906e-06  1.7739821163184550e-06  1.7750755599778493e-06  1.7763511796335253e-06  1.7798540880130312e-06  1.7827838504790558e-06  1.7863605418803290e-06  1.7909521189319908e-06  1.7939062399486739e-06  1.7974728573729048e-06  1.8013195647781652e-06  1.8049554915134984e-06  1.8081683699205626e-06  1.8110377825791926e-06  1.8140347866364712e-06  1.8167439156441640e-06  1.8191820868475015e-06  1.8210900771981688e-06  1.8230746811395005e-06  1.8244497261705321e-06  1.8265153954589397e-06  1.8260874326110152e-06  1.8269410650363130e-06  1.8147706144151595e-06  1.7888375465719488e-06  1.7560810822788064e-06  1.7202044955906174e-06  1.6828681495562626e-06  1.6455604753258979e-06  1.6089996150158100e-06  1.5734048522410449e-06  1.5380995335254103e-06  1.5038004787353488e-06  1.4704326835275078e-06  1.4380722584495835e-06  1.4060013159296961e-06  1.3750978444351691e-06  1.3448150485581775e-06  1.3149786584084615e-06  1.2858733060497242e-06  1.2573185851035900e-06  1.2293836191566746e-06  1.2014926038491789e-06  1.1743295597308345e-06  1.1472485180450012e-06  1.1206725608188154e-06  1.0938627765006662e-06  1.0675121578245850e-06  1.0414528257523416e-06  1.0150721062062880e-06  9.8888351703991600e-07  9.6208355788883131e-07  9.3569164116638359e-07  9.0905255317141718e-07  8.8231192090021766e-07  8.5517715951139014e-07  8.2787955465093973e-07  8.0044754600368871e-07  7.7286910581370177e-07  7.4511757194316946e-07  7.1720474884908124e-07  6.8902841265631451e-07  6.6031784489496674e-07  6.3193383570173499e-07  6.0349591934106209e-07  5.7516804610044682e-07  5.4706771182022615e-07  5.1879640203934414e-07  4.9115444683961281e-07  4.6331875161681645e-07  4.3594157445645162e-07  4.0921471232340410e-07  3.8314853601606935e-07  3.5777138342091756e-07  3.3266271426152530e-07  3.0884496423403627e-07  2.8556897766608048e-07  2.6309257125502544e-07  2.4184998858313980e-07  2.2128307165776151e-07  2.0180074585014492e-07  1.8342397611075219e-07  1.6597121647848398e-07  1.4976266988876232e-07  1.3441776148642533e-07  1.2022093818640941e-07  1.0699528302498678e-07  9.4797757179146348e-08  8.3529832307602073e-08  7.3100756424115553e-08  6.3751873994289311e-08  5.5105849121104455e-08  4.7344513088769455e-08  4.0319015007959880e-08  3.4063178293142793e-08  2.8430874172689204e-08  2.3504707679189253e-08  1.9106696005759367e-08  1.5289830230508676e-08  1.2039675860177902e-08  9.2217994989703326e-09  6.8875504625986680e-09  4.9541134147770041e-09  3.4281583020708199e-09  2.2885760989191959e-09  1.5033588480230374e-09  1.0712870206960360e-09  9.5643186047230357e-10  1.1400477662197786e-09  1.6031995005726264e-09  2.3181527448607864e-09  3.2707170454960685e-09  4.4342509978816310e-09  5.8410552466668611e-09  7.4832136458301058e-09  9.4009044438891778e-09  1.1548728344991529e-08  1.4005730749292121e-08  1.6669155901233141e-08  1.9554212351698521e-08  2.2360968930111514e-08  2.4676342273178748e-08  2.5842801095183707e-08  2.5758063217851909e-08  2.5708077489226513e-08  2.5417394567542877e-08  2.5192344814193866e-08  2.4902420665234321e-08  2.4535334687659921e-08  2.4159523787786559e-08  2.3678270102139119e-08  2.3204604393001127e-08  2.2678739836797851e-08  2.2108561305310490e-08  2.1479096730249832e-08  2.0811980170305733e-08  2.0122446872111680e-08  1.9412255573600151e-08  1.8700464587050158e-08  1.7998680701097633e-08  1.7366072063474840e-08  1.6926385319342759e-08  1.6841053660094998e-08  1.7406057748817160e-08  1.9265816095678588e-08  2.3555722733108640e-08  3.2272286054301447e-08  4.9261245592785383e-08  8.1401774188574817e-08  1.4231173293761962e-07  2.5609290441072565e-07  4.6663554191325110e-07  8.5561733200527002e-07  1.5627056609264839e-06  2.8747738849687373e-06  5.2981450867940455e-06  9.6269442796999401e-06  1.7808418669681436e-05  3.2581481959338384e-05  5.9490489058464829e-05  1.0813440693324165e-04  1.9581966907022518e-04  3.5979731070418604e-04  6.5481811084568587e-04  2.0961166636759270e-03  3.6840475957145235e-03  6.4858481740529368e-03  1.1256665023930258e-02  1.9737252607667441e-02  3.4720941353273735e-02  6.0782049365593643e-02  1.0622165163903138e-01  1.8493003604503158e-01  3.2702515526902637e-01  5.7160142369987177e-01  1.0000000000000000e+00  1.0000000000000000e+00  1.0000000000000000e+00  9.9999999999999989e-01  1.0000000000000000e+00  1.0000000000000000e+00  1.0000000000000000e+00  1.0000000000000000e+00  1.0000000000000000e+00  1.0000000000000000e+00  1.0000000000000000e+00  1.0000000000000000e+00  1.0000000000000000e+00  1.0000000000000000e+00  1.0000000000000000e+00  1.0000000000000000e+00  1.0000000000000000e+00  1.0000000000000000e+00  1.0000000000000000e+00  1.0000000000000000e+00  1.0000000000000000e+00  1.0000000000000000e+00  1.0000000000000000e+00  1.0000000000000000e+00  1.0000000000000000e+00  1.0000000000000000e+00  1.0000000000000000e+00  1.0000000000000000e+00  1.0000000000000000e+00  1.0000000000000000e+00  1.0000000000000000e+00  1.0000000000000000e+00  1.0000000000000000e+00  1.0000000000000000e+00  9.9999999999999989e-01  1.0000000000000000e+00  1.0000000000000000e+00  1.0000000000000000e+00  1.0000000000000000e+00  1.0000000000000000e+00  1.0000000000000000e+00  1.0000000000000000e+00  1.0000000000000000e+00  1.0000000000000000e+00  1.0000000000000000e+00  1.0000000000000000e+00  1.0000000000000000e+00  1.0000000000000000e+00  1.0000000000000000e+00  1.0000000000000000e+00  1.0000000000000000e+00  1.0000000000000000e+00  1.0000000000000000e+00  1.0000000000000000e+00  1.0000000000000000e+00  1.0000000000000000e+00  1.0000000000000000e+00  1.0000000000000000e+00  1.0000000000000000e+00  9.9999999999999989e-01  1.0000000000000000e+00  1.0000000000000000e+00  1.0000000000000000e+00  1.0000000000000000e+00  9.9999999999999989e-01  1.0000000000000000e+00  1.0000000000000000e+00  1.0000000000000000e+00  1.0000000000000000e+00  1.0000000000000000e+00  1.0000000000000000e+00  1.0000000000000000e+00  1.0000000000000000e+00  1.0000000000000000e+00  1.0000000000000000e+00  1.0000000000000000e+00  1.0000000000000000e+00  1.0000000000000000e+00  1.0000000000000000e+00  1.0000000000000000e+00  1.0000000000000000e+00  1.0000000000000000e+00  1.0000000000000000e+00  1.0000000000000000e+00  1.0000000000000000e+00  1.0000000000000000e+00  1.0000000000000000e+00  1.0000000000000000e+00  1.0000000000000000e+00  1.0000000000000000e+00  1.0000000000000000e+00  1.0000000000000000e+00  1.0000000000000000e+00  1.0000000000000000e+00  1.0000000000000000e+00  1.0000000000000000e+00  1.0000000000000000e+00  1.0000000000000000e+00  1.0000000000000000e+00  1.0000000000000000e+00  1.0000000000000000e+00  1.0000000000000000e+00  1.0000000000000000e+00  1.0000000000000000e+00  1.0000000000000000e+00  1.0000000000000000e+00  1.0000000000000000e+00  1.0000000000000000e+00  1.0000000000000000e+00  1.0000000000000000e+00  5.7157081540867094e-01  3.2704024578859658e-01  1.8489315726456207e-01  1.0623927490189647e-01  6.0789268529389033e-02  3.4726290671490037e-02  1.9744685425821341e-02  1.1258434791891854e-02  6.4895803943053540e-03  3.6859955926574072e-03  2.0973562184382196e-03  6.5513248780066119e-04  3.5991735968604784e-04  1.9537207316707412e-04  1.0819548288024010e-04  5.9557848018190384e-05  3.2619756245979508e-05  1.7823978451655058e-05  9.6370719977156585e-06  5.3013197602870629e-06  2.8759290950097524e-06  1.5635624408719792e-06  8.5628001808023234e-07  4.6711640523580312e-07  2.5618667461425228e-07  1.4210493891335978e-07  8.0913518602733893e-08  4.8462375378345594e-08  3.1130903608331117e-08  2.1997968793999615e-08  1.7238835377880956e-08  1.4850795349985010e-08  1.3681286221833252e-08  1.3097314599166950e-08  1.2781317201485356e-08  1.2577586981033292e-08  1.2380129968670077e-08  1.2135235645799262e-08  1.1798420705678270e-08  1.1370014298488653e-08  1.0872624978008282e-08  1.0270929352733827e-08  9.5860181098659616e-09  8.8281907077290525e-09  7.9984451682247000e-09  7.1460474933352439e-09  6.3119805621208059e-09  5.4581213338506673e-09  4.6166948467314914e-09  3.8656410998147804e-09  3.2057274785250673e-09  2.8671090670568714e-09  2.6368888520801529e-09  1.1789207032959245e-03  1.1823898893298884e-03  1.1825381831317987e-03  1.1783926740648067e-03  1.1725506173122812e-03  1.1865527604313481e-03  1.1823454463355239e-03  1.1649297113143602e-03  1.1761314304995388e-03  1.1877972529503371e-03  1.1644100123374137e-03  1.1772159949272019e-03  1.1866814099521514e-03  1.1848121360765376e-03  1.1827296802016079e-03  1.1728107098959296e-03  1.1708312696902788e-03  1.1599280830014705e-03  1.1782002508469961e-03  1.1818636248004096e-03  1.1710696470205793e-03  1.1707908046862477e-03  1.1852187172218239e-03  1.1857349989038328e-03  1.1735589270797358e-03  1.1765875128032068e-03  1.1783802262752493e-03  1.1720873021154447e-03  1.1845707051992495e-03  1.1782019962532553e-03  1.1702491985377120e-03  1.1758024631821585e-03  1.1763677778896060e-03  1.1653877842389014e-03  1.1765456639305561e-03  1.1925456806299341e-03  1.1657472416325876e-03  1.1823825432868257e-03  1.1817507514328832e-03  1.1674910585700970e-03  1.1922159631324359e-03  1.1867493157328374e-03  1.1722518455070700e-03  1.1877220728696248e-03  1.1775832586917419e-03  1.1859584503632330e-03  1.2153862430772505e-03  1.2375448028885689e-03  1.2537682117446415e-03  1.3066548973704357e-03  1.3626000786730672e-03  1.4182738906522543e-03  1.5279392939222432e-03  1.6161069282810598e-03  1.7074953625137552e-03  1.8219747309265314e-03  1.8989904748276990e-03  1.9458552085305596e-03  2.0403852702389237e-03  2.0677075860781632e-03  2.0768854373692863e-03  2.1020229083321819e-03  2.0645244658717447e-03  2.0804542604765616e-03  2.0797995646863678e-03  2.0742022329965277e-03  2.0518582498616688e-03  2.0144872481188351e-03  2.0425286901953016e-03  2.0470770894289968e-03  2.0345693671504840e-03  2.0188371841653200e-03  2.0213473882168256e-03  2.0153100981204447e-03  1.9821389411792067e-03  1.9986589148768912e-03  1.9877312372401741e-03  1.9679473914242934e-03  1.9869351770050339e-03  1.9746831387344220e-03  1.9604913641711624e-03  1.9839661415937955e-03  1.9938469930718488e-03  1.9737712866990465e-03  1.9668697347067820e-03  2.0163302586002122e-03  2.0098589414285039e-03  2.0118282302462633e-03  2.0119197444667634e-03  1.9856057375099226e-03  2.0078427689795759e-03  2.0246139073203905e-03  2.0251008071517479e-03  2.0260273495756390e-03  1.9952460154662017e-03  2.0242172144961006e-03  2.0404676174679685e-03  2.0500001694458468e-03  2.0396445538516635e-03  2.0448812745272457e-03  2.0571374662728807e-03  2.0688405675899873e-03  2.0702270159201281e-03  2.0836796298764892e-03  2.0939307405326208e-03  2.0832544995622437e-03  2.0885941507237629e-03  2.0838326023385782e-03  2.0649111441710570e-03  2.0941094277303583e-03  2.1080462308036767e-03  1.1794956196700210e-03  1.1825747515029983e-03  1.1827085330893162e-03  1.1785094178480649e-03  1.1727019746957093e-03  1.1871311963659740e-03  1.1825200190312582e-03  1.1653080188922648e-03  1.1759475896404499e-03  1.1871429586021870e-03  1.1659257180652077e-03  1.1762318740954172e-03  1.1856537535390027e-03  1.1836532531783719e-03  1.1815003553933194e-03  1.1721874128073173e-03  1.1690836880408791e-03  1.1560877202093187e-03  1.1758540287418156e-03  1.1836977301400370e-03  1.1735545701646573e-03  1.1746573492447880e-03  1.1869523455760235e-03  1.1876878863817059e-03  1.1745500465033401e-03  1.1772773342043105e-03  1.1795187948293220e-03  1.1732280492378771e-03  1.1848484232755002e-03  1.1787074753068717e-03  1.1700893868621155e-03  1.1742591997322138e-03  1.1733546080216620e-03  1.1623217371718475e-03  1.1733689988333025e-03  1.1899319656409075e-03  1.1625915519648572e-03  1.1791181563074239e-03  1.1773968315398019e-03  1.1627089713590407e-03  1.1881433310413543e-03  1.1816302210239189e-03  1.1669766252129510e-03  1.1812543608215463e-03  1.1666065733030189e-03  1.1665306684883988e-03  1.1815408274308751e-03  1.1827357481693826e-03  1.1676359090264847e-03  1.1770510172514077e-03  1.1773018486710605e-03  1.1600690523662284e-03  1.1784578961804241e-03  1.1755022869088627e-03  1.1680101801085929e-03  1.1771367625573990e-03  1.1731466100877081e-03  1.1575846730598361e-03  1.1793513743802153e-03  1.1748692415638113e-03  1.1673434250338165e-03  1.1770061949712960e-03  1.1556789614798322e-03  1.1663004626567030e-03  1.1690336822559181e-03  1.1691871688344364e-03  1.1602822214055132e-03  1.1435399973613275e-03  1.1643400638746801e-03  1.1729729850324883e-03  1.1715670131717750e-03  1.1661061683259676e-03  1.1738798158109505e-03  1.1760219067331599e-03  1.1623794655654389e-03  1.1775603031418597e-03  1.1761226418256321e-03  1.1681202572851907e-03  1.1813449608671031e-03  1.1737572596230040e-03  1.1627702003671788e-03  1.1728460336410372e-03  1.1738886003975879e-03  1.1595399527845815e-03  1.1489599266781554e-03  1.1734574709182713e-03  1.1670124026692916e-03  1.1674795586248995e-03  1.1686912654234785e-03  1.1549657857843102e-03  1.1685846758123842e-03  1.1783274324706403e-03  1.1762862246332145e-03  1.1723935830811535e-03  1.1507028099369662e-03  1.1647592107831503e-03  1.1721250421916284e-03  1.1762859205746898e-03  1.1677182020571691e-03  1.1674133314460925e-03  1.1697846361721830e-03  1.1719523724502160e-03  1.1695424181031940e-03  1.1746436580657841e-03  1.1791684616318818e-03  1.1732255585140195e-03  1.1752849615558002e-03  1.1732572375250951e-03  1.1620563629249870e-03  1.1795451198550540e-03  1.1892099493842727e-03  9.9126187732065718e-01  9.9731349120957691e-01  9.9267902024448385e-01  9.9425222442056105e-01  9.9504894715963432e-01  9.9444404309378842e-01  9.9495683023461612e-01  9.9538588265236316e-01  9.9409959651146662e-01  9.9462952960207363e-01  9.9316754970558907e-01  9.9668239343638565e-01  9.9368344600392489e-01  9.9559368228231537e-01  9.9498199664776210e-01  9.9550493405333440e-01  9.9533947385030841e-01  9.9525084988735135e-01  9.9551025332325149e-01  9.9552562578043402e-01  9.9563159291160741e-01  9.9571891544005342e-01  9.9581746737074317e-01  9.9614332786268733e-01  9.9612951263897087e-01  9.9416263809966388e-01  9.9790713102645789e-01  9.9468554482161375e-01  9.9628604922554354e-01  9.9493343000985657e-01  9.9410612491599304e-01  9.9418720106330827e-01  9.9502408113289353e-01  9.9628365674541364e-01  9.9464760756456694e-01  9.9811514961405579e-01  9.9425036205281536e-01  9.9421729685420512e-01  9.9762127645335530e-01  9.9363049651932378e-01  9.9461157964480129e-01  9.9433807787947859e-01  9.9567670798041052e-01  9.9526617256238126e-01  9.9478844058154980e-01  9.9483423616041056e-01  9.9388234491610061e-01  9.9467981635670377e-01  9.9523960720560001e-01  9.9455629198603313e-01  9.9520718706278222e-01  9.9451145141531894e-01  9.9528458367612394e-01  9.9330633427580617e-01  9.9601117194953470e-01  1.9242122219318800e-07  7.3616703502176899e-09  8.0706050328109270e-07  1.2038358379430932e-06  1.0425012439615270e-06  3.2019506035949719e-07  3.5382710909124443e-07  1.6295837218594405e-06  9.8869457053855176e-07  4.4463960277032445e-07  5.0223253054190882e-08  3.3796089635847017e-09  2.4967395025038305e-06  1.4352283193149389e-06  1.7457896953517847e-06  1.5117820038190348e-06  3.7468259518171865e-06  7.2305828883278649e-07  7.1688925423293085e-09  1.8714589817999395e-07  5.4244742044140589e